/*--------------------------------*- C++ -*----------------------------------*\
| =========                 |                                                 |
| \\      /  F ield         | OpenFOAM: The Open Source CFD Toolbox           |
|  \\    /   O peration     | Version:  v2012                                 |
|   \\  /    A nd           | Website:  www.openfoam.com                      |
|    \\/     M anipulation  |                                                 |
\*---------------------------------------------------------------------------*/
FoamFile
{
    version     2.0;
    format      ascii;
    class       volVectorField;
    location    "2.19";
    object      H;
}
// * * * * * * * * * * * * * * * * * * * * * * * * * * * * * * * * * * * * * //

dimensions      [0 1 -2 0 0 0 0];


internalField   nonuniform List<vector> 
28416
(
(146.522255 0.0163252079 0)
(146.499843 0.0442706699 0)
(146.465623 0.0611837888 0)
(146.423405 0.0641979957 0)
(146.380557 0.0539179498 0)
(146.342481 0.0325315028 0)
(146.3142 0.00144277056 0)
(146.296954 -0.0398746668 0)
(146.289511 -0.0870043133 0)
(146.295261 -0.133540997 0)
(146.315399 -0.172251758 0)
(146.34744 -0.195387097 0)
(146.386368 -0.196863577 0)
(146.425654 -0.17412158 0)
(146.458526 -0.128785263 0)
(146.479494 -0.0660378554 0)
(146.486779 0.00662049524 0)
(146.478781 0.0791726726 0)
(146.450635 0.146173377 0)
(146.406239 0.20247812 0)
(146.350102 0.243858808 0)
(146.286168 0.268071418 0)
(146.21844 0.27481378 0)
(146.150818 0.265438569 0)
(146.086837 0.24274878 0)
(146.029599 0.210770948 0)
(145.981559 0.174548247 0)
(145.944074 0.139955418 0)
(145.916907 0.11335492 0)
(145.897861 0.100917652 0)
(145.882742 0.107643561 0)
(145.865861 0.136292298 0)
(145.841004 0.186493421 0)
(145.80256 0.254421051 0)
(145.746491 0.333367081 0)
(145.671002 0.415164789 0)
(145.576699 0.492047006 0)
(145.466196 0.558359182 0)
(145.343245 0.611585544 0)
(145.211715 0.652384266 0)
(145.074714 0.683699283 0)
(144.934117 0.709360878 0)
(144.79056 0.732739308 0)
(144.64381 0.755910268 0)
(144.493275 0.779500706 0)
(144.338448 0.803072527 0)
(144.179145 0.825723468 0)
(144.015539 0.846595326 0)
(143.848052 0.865126147 0)
(143.677226 0.881054714 0)
(143.503626 0.894290913 0)
(143.327805 0.904776117 0)
(143.150315 0.91240482 0)
(142.971728 0.917015058 0)
(142.792656 0.918417698 0)
(142.613757 0.916430701 0)
(142.43573 0.910899865 0)
(142.259302 0.901704402 0)
(142.085224 0.888754259 0)
(141.914261 0.871986063 0)
(141.747189 0.8513609 0)
(141.584782 0.826863938 0)
(141.427812 0.798504916 0)
(141.277039 0.766318975 0)
(141.133202 0.730368043 0)
(140.997014 0.690743221 0)
(140.869156 0.647568057 0)
(140.750284 0.601001912 0)
(140.64102 0.551241734 0)
(140.541967 0.498520839 0)
(140.453712 0.443103415 0)
(140.37683 0.385276555 0)
(140.311887 0.325336394 0)
(140.25945 0.263572423 0)
(140.220098 0.200249784 0)
(140.194374 0.135550213 0)
(140.182289 0.0694858133 0)
(140.182644 0.00248732656 0)
(140.198736 -0.0638998737 0)
(140.230504 -0.130218106 0)
(140.277087 -0.196463215 0)
(140.338042 -0.262226844 0)
(140.413296 -0.327114117 0)
(140.502647 -0.390766616 0)
(140.605708 -0.45280488 0)
(140.721998 -0.512830137 0)
(140.850939 -0.570434236 0)
(140.991845 -0.625198772 0)
(141.143924 -0.676698373 0)
(141.306302 -0.724512745 0)
(141.478028 -0.768243857 0)
(141.658089 -0.807534271 0)
(141.84542 -0.842083149 0)
(142.03891 -0.871657231 0)
(142.23741 -0.896096068 0)
(142.439749 -0.915312618 0)
(142.644747 -0.929291041 0)
(142.851226 -0.938083286 0)
(143.058033 -0.941805163 0)
(143.264054 -0.94063188 0)
(143.468223 -0.934792826 0)
(143.669544 -0.924565376 0)
(143.867096 -0.910267683 0)
(144.06004 -0.892250698 0)
(144.247627 -0.870889704 0)
(144.429203 -0.846575767 0)
(144.604206 -0.819707378 0)
(144.772172 -0.790682688 0)
(144.932729 -0.759892502 0)
(145.085594 -0.72771425 0)
(145.230569 -0.694506942 0)
(145.367537 -0.660607133 0)
(145.496452 -0.62632579 0)
(145.617336 -0.591946011 0)
(145.730268 -0.557721653 0)
(145.835382 -0.523876795 0)
(145.932853 -0.490605971 0)
(146.022895 -0.458075018 0)
(146.105751 -0.426422043 0)
(146.181685 -0.395757704 0)
(146.250988 -0.366165802 0)
(146.313976 -0.337708964 0)
(146.37098 -0.310432589 0)
(146.422338 -0.284367283 0)
(146.46839 -0.259530757 0)
(146.509474 -0.235929733 0)
(146.545922 -0.2135621 0)
(146.578057 -0.192419173 0)
(146.606192 -0.172487559 0)
(146.630623 -0.153750219 0)
(146.65163 -0.136186528 0)
(146.669476 -0.119771309 0)
(146.684399 -0.104472794 0)
(146.696622 -0.0902493018 0)
(146.706352 -0.0770486018 0)
(146.713783 -0.0648089258 0)
(146.719105 -0.0534601068 0)
(146.722504 -0.0429253197 0)
(146.724175 -0.033124655 0)
(146.72433 -0.023983102 0)
(146.723225 -0.0154425819 0)
(146.721146 -0.0074864902 0)
(146.718573 -0.000234701767 0)
(146.715378 0.00597892883 0)
(146.710779 0.0114200046 0)
(146.704938 0.0163966976 0)
(146.698196 0.0210441855 0)
(146.690818 0.025396093 0)
(146.68297 0.0294414369 0)
(146.674745 0.0331632523 0)
(146.666219 0.0365476071 0)
(146.657454 0.0395833511 0)
(146.648491 0.0422675115 0)
(146.639358 0.0446081757 0)
(146.630077 0.0466224389 0)
(146.620673 0.0483331758 0)
(146.61117 0.0497663327 0)
(146.60159 0.0509487479 0)
(146.591962 0.0519064557 0)
(146.582312 0.0526635224 0)
(146.572666 0.053241402 0)
(146.563048 0.0536586804 0)
(146.553485 0.0539310717 0)
(146.543995 0.054071653 0)
(146.5346 0.054091259 0)
(146.525315 0.0539989217 0)
(146.516155 0.053802327 0)
(146.507131 0.0535082673 0)
(146.498254 0.0531230493 0)
(146.489531 0.0526528148 0)
(146.480968 0.0521037528 0)
(146.472571 0.0514821987 0)
(146.464343 0.050794632 0)
(146.456289 0.0500475981 0)
(146.448413 0.0492475972 0)
(146.440717 0.0484009388 0)
(146.433204 0.0475135568 0)
(146.425879 0.046590843 0)
(146.418744 0.0456375747 0)
(146.411803 0.0446579317 0)
(146.405058 0.0436555423 0)
(146.398513 0.0426335091 0)
(146.39217 0.0415944949 0)
(146.386028 0.040540517 0)
(146.380102 0.0394739792 0)
(146.374361 0.0383932723 0)
(146.368923 0.0373111113 0)
(146.363419 0.0361735656 0)
(146.359218 0.0352049001 0)
(146.34908 0.0333677295 0)
(146.525244 0.0351415419 0)
(146.504866 0.0948213608 0)
(146.470279 0.131843047 0)
(146.424631 0.14257681 0)
(146.376416 0.129065912 0)
(146.33178 0.0953713807 0)
(146.294574 0.0442759466 0)
(146.269148 -0.0233848959 0)
(146.260523 -0.101846186 0)
(146.270154 -0.181545352 0)
(146.298014 -0.250214918 0)
(146.341559 -0.294648586 0)
(146.395126 -0.304354293 0)
(146.450831 -0.274637184 0)
(146.500076 -0.207794848 0)
(146.535206 -0.112194991 0)
(146.550045 -0.000355019134 0)
(146.543961 0.112585499 0)
(146.515085 0.216387632 0)
(146.465557 0.302874322 0)
(146.400197 0.366041044 0)
(146.324741 0.402946971 0)
(146.244962 0.413464638 0)
(146.166326 0.399647323 0)
(146.093699 0.365334713 0)
(146.031134 0.315997431 0)
(145.981644 0.258755214 0)
(145.946826 0.20239336 0)
(145.92638 0.156992075 0)
(145.91773 0.132831083 0)
(145.915975 0.138583321 0)
(145.914289 0.179222676 0)
(145.904797 0.254367436 0)
(145.879907 0.357794723 0)
(145.83379 0.478491958 0)
(145.763533 0.603074752 0)
(145.669575 0.71890226 0)
(145.555295 0.816928535 0)
(145.42587 0.893378693 0)
(145.286793 0.949750962 0)
(145.142543 0.991274852 0)
(144.995799 1.02452921 0)
(144.847374 1.05517493 0)
(144.696729 1.08657673 0)
(144.542744 1.11959393 0)
(144.384404 1.15328683 0)
(144.22119 1.18597934 0)
(144.053132 1.21614078 0)
(143.880653 1.24280865 0)
(143.704355 1.26557551 0)
(143.524865 1.28434505 0)
(143.342774 1.29907736 0)
(143.15865 1.30964748 0)
(142.973081 1.31582802 0)
(142.786701 1.31734094 0)
(142.600204 1.31391778 0)
(142.414333 1.30533544 0)
(142.229872 1.29142502 0)
(142.047626 1.27206635 0)
(141.86842 1.24718072 0)
(141.693084 1.21672763 0)
(141.522451 1.18070524 0)
(141.35735 1.13915206 0)
(141.198596 1.09214805 0)
(141.046987 1.03981433 0)
(140.9033 0.982311744 0)
(140.768282 0.919838517 0)
(140.642656 0.852627264 0)
(140.527113 0.780941541 0)
(140.422315 0.70507203 0)
(140.328893 0.625332432 0)
(140.247447 0.542054963 0)
(140.178538 0.455583008 0)
(140.122699 0.366265718 0)
(140.080389 0.274431432 0)
(140.051865 0.180364134 0)
(140.037473 0.0843382363 0)
(140.038101 -0.013095291 0)
(140.055329 -0.110428258 0)
(140.087668 -0.207822974 0)
(140.135313 -0.304996711 0)
(140.198221 -0.401358803 0)
(140.276249 -0.496330879 0)
(140.369184 -0.589352317 0)
(140.476688 -0.6798253 0)
(140.598299 -0.767124338 0)
(140.733438 -0.850619056 0)
(140.881402 -0.929684479 0)
(141.041371 -1.00371222 0)
(141.21242 -1.07212608 0)
(141.393527 -1.13439773 0)
(141.583583 -1.19006055 0)
(141.781409 -1.23872193 0)
(141.985763 -1.28007366 0)
(142.19536 -1.31390017 0)
(142.408885 -1.340084 0)
(142.625014 -1.35860835 0)
(142.842431 -1.36955631 0)
(143.059856 -1.37310726 0)
(143.276051 -1.36953032 0)
(143.489847 -1.35917574 0)
(143.700156 -1.34246444 0)
(143.90598 -1.31987634 0)
(144.106424 -1.29193788 0)
(144.300699 -1.25920925 0)
(144.488127 -1.22227174 0)
(144.668139 -1.18171557 0)
(144.84028 -1.13812868 0)
(145.004198 -1.09208661 0)
(145.159644 -1.04414376 0)
(145.306461 -0.994826103 0)
(145.444581 -0.944625393 0)
(145.574015 -0.893994856 0)
(145.694842 -0.843346206 0)
(145.807204 -0.793047977 0)
(145.911294 -0.743424918 0)
(146.007348 -0.694758245 0)
(146.09564 -0.647286576 0)
(146.176472 -0.601207026 0)
(146.250166 -0.556675749 0)
(146.317065 -0.513809491 0)
(146.377529 -0.472693513 0)
(146.431923 -0.433387537 0)
(146.480615 -0.395929646 0)
(146.523972 -0.360339261 0)
(146.562353 -0.326619716 0)
(146.596108 -0.294760543 0)
(146.625572 -0.264739385 0)
(146.651068 -0.236523482 0)
(146.672901 -0.210070942 0)
(146.691362 -0.185331982 0)
(146.706725 -0.162249846 0)
(146.719246 -0.140760865 0)
(146.729169 -0.120793223 0)
(146.736722 -0.102266904 0)
(146.742118 -0.0850945124 0)
(146.745565 -0.0691824774 0)
(146.747262 -0.0544335127 0)
(146.747401 -0.0407516513 0)
(146.746175 -0.028052488 0)
(146.743768 -0.0162832017 0)
(146.740262 -0.00547784089 0)
(146.735812 0.0042866062 0)
(146.730545 0.0127586854 0)
(146.724534 0.0201887523 0)
(146.717789 0.0268331537 0)
(146.710336 0.0328374209 0)
(146.702274 0.0382814652 0)
(146.693708 0.0432125406 0)
(146.684731 0.0476686766 0)
(146.675424 0.0516804409 0)
(146.66586 0.0552681904 0)
(146.656103 0.0584471637 0)
(146.646205 0.061232957 0)
(146.636206 0.0636436239 0)
(146.626139 0.0656999454 0)
(146.616032 0.067424919 0)
(146.605911 0.0688428494 0)
(146.595798 0.069978319 0)
(146.585714 0.0708553 0)
(146.575681 0.0714966133 0)
(146.565716 0.0719237562 0)
(146.555838 0.0721565783 0)
(146.546063 0.072213027 0)
(146.536405 0.0721091656 0)
(146.526879 0.0718593403 0)
(146.517496 0.0714763909 0)
(146.508265 0.0709718733 0)
(146.499196 0.070356282 0)
(146.490297 0.0696392495 0)
(146.481572 0.0688297143 0)
(146.473027 0.0679360494 0)
(146.464667 0.0669661461 0)
(146.456495 0.0659274591 0)
(146.448514 0.0648270153 0)
(146.440728 0.0636714093 0)
(146.433138 0.0624668079 0)
(146.425746 0.0612189229 0)
(146.418555 0.0599329514 0)
(146.411566 0.0586135414 0)
(146.404781 0.0572647946 0)
(146.398201 0.0558902512 0)
(146.39183 0.0544929525 0)
(146.385664 0.0530751015 0)
(146.379717 0.0516392381 0)
(146.373956 0.0501829182 0)
(146.3685 0.0487198859 0)
(146.36296 0.0471875675 0)
(146.35873 0.0458521563 0)
(146.348387 0.0434636512 0)
(146.524998 0.0440913371 0)
(146.503929 0.11942891 0)
(146.469636 0.167091967 0)
(146.425143 0.183452742 0)
(146.378312 0.171340575 0)
(146.334956 0.135516696 0)
(146.299202 0.0795550507 0)
(146.274546 0.00644046143 0)
(146.266192 -0.0790690615 0)
(146.275542 -0.168604768 0)
(146.302571 -0.248254603 0)
(146.344579 -0.30251545 0)
(146.396031 -0.318845476 0)
(146.449326 -0.291278552 0)
(146.496239 -0.221885854 0)
(146.529322 -0.119833261 0)
(146.543105 0.00120308517 0)
(146.538182 0.127300441 0)
(146.512377 0.244108421 0)
(146.46756 0.341073228 0)
(146.407441 0.411455855 0)
(146.336976 0.452036665 0)
(146.261531 0.462666499 0)
(146.186285 0.445611102 0)
(146.115945 0.405038937 0)
(146.054557 0.34685957 0)
(146.005261 0.278857676 0)
(145.969902 0.210813346 0)
(145.948511 0.154140286 0)
(145.938843 0.120672773 0)
(145.936214 0.120614718 0)
(145.933914 0.160142393 0)
(145.924257 0.23943972 0)
(145.899936 0.351939189 0)
(145.85532 0.485286373 0)
(145.787439 0.623981066 0)
(145.696405 0.753004493 0)
(145.585105 0.861316049 0)
(145.458218 0.944071665 0)
(145.320875 1.00284662 0)
(145.177403 1.04390813 0)
(145.03054 1.07534092 0)
(144.881289 1.10421106 0)
(144.729333 1.13477867 0)
(144.573732 1.16816686 0)
(144.413568 1.20320904 0)
(144.248337 1.23778273 0)
(144.078037 1.2699405 0)
(143.903047 1.29846583 0)
(143.723937 1.3228672 0)
(143.541326 1.34306641 0)
(143.355815 1.35906529 0)
(143.167993 1.37075608 0)
(142.978474 1.37789368 0)
(142.787918 1.3801606 0)
(142.597049 1.37724503 0)
(142.406642 1.36888788 0)
(142.217513 1.35489459 0)
(142.030507 1.33512774 0)
(141.846488 1.30949685 0)
(141.666328 1.27795322 0)
(141.490903 1.24048924 0)
(141.321085 1.19713939 0)
(141.157728 1.1479804 0)
(141.001669 1.09313026 0)
(140.853714 1.03274696 0)
(140.714633 0.967027475 0)
(140.58516 0.89620706 0)
(140.465993 0.820557814 0)
(140.357797 0.740385349 0)
(140.261208 0.656023637 0)
(140.176838 0.567827749 0)
(140.105266 0.476167747 0)
(140.047039 0.381426228 0)
(140.002666 0.283989818 0)
(139.972624 0.184283899 0)
(139.957196 0.0828520217 0)
(139.956888 -0.0198170613 0)
(139.973406 -0.123382385 0)
(140.005596 -0.227318333 0)
(140.05358 -0.331139042 0)
(140.117302 -0.434305377 0)
(140.196667 -0.536206156 0)
(140.291485 -0.636196734 0)
(140.401435 -0.733606727 0)
(140.526061 -0.827741372 0)
(140.664788 -0.917892826 0)
(140.816914 -1.00335171 0)
(140.981609 -1.08341948 0)
(141.157919 -1.15742523 0)
(141.34478 -1.22474555 0)
(141.541022 -1.28482495 0)
(141.745388 -1.33719441 0)
(141.956546 -1.38148643 0)
(142.173111 -1.41744548 0)
(142.393665 -1.44493356 0)
(142.616783 -1.46393157 0)
(142.84105 -1.47453719 0)
(143.06509 -1.47695972 0)
(143.287581 -1.47151211 0)
(143.50728 -1.45860072 0)
(143.723033 -1.43871286 0)
(143.933795 -1.41240279 0)
(144.138631 -1.38027675 0)
(144.336729 -1.34297756 0)
(144.527402 -1.30116957 0)
(144.710082 -1.25552423 0)
(144.884327 -1.20670706 0)
(145.049807 -1.15536596 0)
(145.206303 -1.1021213 0)
(145.353695 -1.04755787 0)
(145.491956 -0.992218578 0)
(145.621139 -0.936599928 0)
(145.74137 -0.881149085 0)
(145.852835 -0.826262462 0)
(145.955773 -0.772285576 0)
(146.050465 -0.719513936 0)
(146.137225 -0.668194804 0)
(146.216395 -0.61852948 0)
(146.288333 -0.570676037 0)
(146.353415 -0.524753038 0)
(146.412024 -0.48084474 0)
(146.464548 -0.439005912 0)
(146.51137 -0.399265801 0)
(146.552874 -0.361631541 0)
(146.589431 -0.326091352 0)
(146.621403 -0.292617768 0)
(146.649139 -0.261170925 0)
(146.672974 -0.231701499 0)
(146.693224 -0.204152832 0)
(146.710186 -0.178462115 0)
(146.724139 -0.154560823 0)
(146.735339 -0.132375045 0)
(146.744027 -0.111826639 0)
(146.750427 -0.0928341358 0)
(146.754749 -0.0753141766 0)
(146.75719 -0.0591841394 0)
(146.75794 -0.0443658693 0)
(146.757177 -0.0307901894 0)
(146.755065 -0.0183995248 0)
(146.751719 -0.00713761618 0)
(146.747318 0.00311529341 0)
(146.742166 0.0124685433 0)
(146.736219 0.0209788207 0)
(146.729458 0.0286493366 0)
(146.721922 0.0355188241 0)
(146.713747 0.0416745023 0)
(146.705086 0.0471858026 0)
(146.696055 0.0520965164 0)
(146.686729 0.0564462256 0)
(146.677163 0.0602763053 0)
(146.667401 0.0636251858 0)
(146.657479 0.0665277153 0)
(146.64743 0.0690172887 0)
(146.63728 0.0711261382 0)
(146.627061 0.0728846058 0)
(146.6168 0.0743209867 0)
(146.606522 0.0754621696 0)
(146.596253 0.0763338352 0)
(146.586018 0.0769602193 0)
(146.575841 0.077363768 0)
(146.565741 0.0775647047 0)
(146.555741 0.0775811172 0)
(146.545855 0.07742924 0)
(146.536099 0.0771236485 0)
(146.526486 0.0766774351 0)
(146.517028 0.0761024392 0)
(146.507733 0.0754094856 0)
(146.498608 0.074608602 0)
(146.48966 0.0737091931 0)
(146.480892 0.0727201627 0)
(146.47231 0.0716499824 0)
(146.463917 0.0705067072 0)
(146.455714 0.069297962 0)
(146.447705 0.0680309068 0)
(146.439891 0.0667122095 0)
(146.432276 0.065348046 0)
(146.42486 0.0639440823 0)
(146.417647 0.0625054232 0)
(146.410639 0.0610365784 0)
(146.403835 0.0595414631 0)
(146.397238 0.0580233841 0)
(146.390851 0.056485101 0)
(146.38467 0.0549285107 0)
(146.378707 0.0533557131 0)
(146.372931 0.0517642363 0)
(146.367455 0.0501664396 0)
(146.361903 0.0485028693 0)
(146.357652 0.0470372845 0)
(146.347422 0.0444843468 0)
(146.525264 0.0563578479 0)
(146.50451 0.153716702 0)
(146.469382 0.21640102 0)
(146.422612 0.238959739 0)
(146.372495 0.224607676 0)
(146.325605 0.179385149 0)
(146.28687 0.107857628 0)
(146.260965 0.0132804728 0)
(146.253139 -0.0985499561 0)
(146.264652 -0.215509981 0)
(146.29625 -0.319916972 0)
(146.345107 -0.392063224 0)
(146.405032 -0.415718306 0)
(146.467528 -0.382934905 0)
(146.523283 -0.296014982 0)
(146.563932 -0.166371924 0)
(146.584002 -0.0111582081 0)
(146.582884 0.150323809 0)
(146.556784 0.30042263 0)
(146.508706 0.425278693 0)
(146.44356 0.515975782 0)
(146.367146 0.56838205 0)
(146.285585 0.582334576 0)
(146.204877 0.560740769 0)
(146.130524 0.508904986 0)
(146.067208 0.434298875 0)
(146.018428 0.346747247 0)
(145.986069 0.258634322 0)
(145.969906 0.184508563 0)
(145.967253 0.139574381 0)
(145.972954 0.137046623 0)
(145.979808 0.184989869 0)
(145.979416 0.28371862 0)
(145.963522 0.424847811 0)
(145.925592 0.592589979 0)
(145.862103 0.767166875 0)
(145.77307 0.929445373 0)
(145.661675 1.06537981 0)
(145.533141 1.16881457 0)
(145.393209 1.24175626 0)
(145.246723 1.29218259 0)
(145.096757 1.33040005 0)
(144.944446 1.36544214 0)
(144.789447 1.40278659 0)
(144.630699 1.4439147 0)
(144.467136 1.48737163 0)
(144.29813 1.53045651 0)
(144.123599 1.57066743 0)
(143.943881 1.60642235 0)
(143.759537 1.63706525 0)
(143.57119 1.66247747 0)
(143.379453 1.68265463 0)
(143.184936 1.69746147 0)
(142.988275 1.70659164 0)
(142.790166 1.70964685 0)
(142.591373 1.70623476 0)
(142.392721 1.69602903 0)
(142.195082 1.67878503 0)
(141.999361 1.65433091 0)
(141.806482 1.6225552 0)
(141.617379 1.58340065 0)
(141.432988 1.53686427 0)
(141.254235 1.48299958 0)
(141.082034 1.42191752 0)
(140.917275 1.35378484 0)
(140.760825 1.27881989 0)
(140.613519 1.19728643 0)
(140.476167 1.1094864 0)
(140.349539 1.0157528 0)
(140.234367 0.916443873 0)
(140.131338 0.811939159 0)
(140.041093 0.702637468 0)
(139.964226 0.588955286 0)
(139.901287 0.471326917 0)
(139.852785 0.350206799 0)
(139.819162 0.226062292 0)
(139.800863 0.0993689905 0)
(139.798946 -0.0292429627 0)
(139.815028 -0.158998978 0)
(139.84745 -0.289274044 0)
(139.896384 -0.419433228 0)
(139.961915 -0.548753196 0)
(140.044017 -0.676451695 0)
(140.142548 -0.801708427 0)
(140.257234 -0.923662992 0)
(140.387656 -1.04142034 0)
(140.533249 -1.15406959 0)
(140.693287 -1.26070482 0)
(140.866895 -1.36044528 0)
(141.053045 -1.45245642 0)
(141.25057 -1.53597159 0)
(141.458179 -1.61031233 0)
(141.674474 -1.67490704 0)
(141.89797 -1.72930748 0)
(142.127119 -1.77320213 0)
(142.360339 -1.80642552 0)
(142.596036 -1.82896246 0)
(142.832632 -1.84094716 0)
(143.068598 -1.84265728 0)
(143.302474 -1.83450348 0)
(143.53289 -1.81701534 0)
(143.758591 -1.79082455 0)
(143.978445 -1.75664611 0)
(144.191458 -1.71525856 0)
(144.396775 -1.66748397 0)
(144.593689 -1.61416848 0)
(144.781634 -1.556164 0)
(144.960183 -1.49431168 0)
(145.129039 -1.42942729 0)
(145.288026 -1.36228908 0)
(145.43708 -1.29362787 0)
(145.576236 -1.22411962 0)
(145.705617 -1.15438022 0)
(145.825417 -1.08496229 0)
(145.935897 -1.0163539 0)
(146.037367 -0.948978804 0)
(146.130177 -0.883197891 0)
(146.214711 -0.819311778 0)
(146.291374 -0.757564172 0)
(146.360584 -0.69814589 0)
(146.422772 -0.641199648 0)
(146.478369 -0.58682547 0)
(146.527806 -0.535086288 0)
(146.571506 -0.486013316 0)
(146.609883 -0.439611057 0)
(146.643337 -0.395861677 0)
(146.672247 -0.354728492 0)
(146.696978 -0.316158601 0)
(146.717869 -0.280084928 0)
(146.735242 -0.246428204 0)
(146.749399 -0.215099282 0)
(146.760628 -0.186001649 0)
(146.769195 -0.159033764 0)
(146.775353 -0.134090942 0)
(146.779335 -0.111066502 0)
(146.781358 -0.0898525732 0)
(146.781621 -0.0703408561 0)
(146.78031 -0.052423059 0)
(146.777593 -0.0359908485 0)
(146.773645 -0.0209400538 0)
(146.768726 -0.00719361767 0)
(146.763133 0.00523517319 0)
(146.756748 0.0164858804 0)
(146.749541 0.0266197734 0)
(146.741637 0.03571703 0)
(146.733146 0.0438921284 0)
(146.724125 0.0512468939 0)
(146.714624 0.0578583727 0)
(146.704715 0.0637835645 0)
(146.694487 0.069066438 0)
(146.684019 0.0737422755 0)
(146.673379 0.0778423675 0)
(146.662625 0.0813984321 0)
(146.651806 0.0844437187 0)
(146.640956 0.0870124005 0)
(146.630107 0.0891395617 0)
(146.619282 0.0908609511 0)
(146.608503 0.0922116637 0)
(146.59779 0.0932251267 0)
(146.58716 0.0939326729 0)
(146.576629 0.0943632129 0)
(146.566211 0.0945428933 0)
(146.55592 0.0944953087 0)
(146.545766 0.094241865 0)
(146.535763 0.0938019937 0)
(146.52592 0.0931933001 0)
(146.516245 0.0924317296 0)
(146.506748 0.0915317333 0)
(146.497434 0.0905064294 0)
(146.488311 0.089367759 0)
(146.479382 0.0881266375 0)
(146.470654 0.0867930954 0)
(146.462128 0.085376397 0)
(146.453807 0.0838851322 0)
(146.445693 0.0823272899 0)
(146.437789 0.0807102853 0)
(146.430095 0.0790409321 0)
(146.422612 0.0773254139 0)
(146.41534 0.0755692915 0)
(146.40828 0.0737775217 0)
(146.401433 0.0719544657 0)
(146.394798 0.0701038607 0)
(146.388376 0.0682288922 0)
(146.382165 0.0663318414 0)
(146.376174 0.0644154005 0)
(146.370369 0.0624772479 0)
(146.364868 0.0605327451 0)
(146.359271 0.0585151591 0)
(146.354993 0.0567350475 0)
(146.344514 0.0536905892 0)
(146.52534 0.068142948 0)
(146.504634 0.18643051 0)
(146.469553 0.263904818 0)
(146.422887 0.294322372 0)
(146.372848 0.281380486 0)
(146.325867 0.231901357 0)
(146.286701 0.151099742 0)
(146.259476 0.0427842647 0)
(146.250985 -0.0865196827 0)
(146.263689 -0.223173323 0)
(146.296448 -0.346924237 0)
(146.34626 -0.434829119 0)
(146.407099 -0.467730494 0)
(146.470584 -0.435866834 0)
(146.52758 -0.341318173 0)
(146.569866 -0.196825412 0)
(146.591039 -0.0221637737 0)
(146.591714 0.160115372 0)
(146.569108 0.330058042 0)
(146.524776 0.471853653 0)
(146.46298 0.575057759 0)
(146.389354 0.634656107 0)
(146.310022 0.65026289 0)
(146.231022 0.625011295 0)
(146.157904 0.564701001 0)
(146.095441 0.477553681 0)
(146.047309 0.374519363 0)
(146.015662 0.269630115 0)
(146.000616 0.179630523 0)
(145.99976 0.122272842 0)
(146.007957 0.113251505 0)
(146.017757 0.162486044 0)
(146.02052 0.270976558 0)
(146.007913 0.429495474 0)
(145.973354 0.619923432 0)
(145.913153 0.819148722 0)
(145.827066 1.00451734 0)
(145.718019 1.15917291 0)
(145.591063 1.27553622 0)
(145.45189 1.35578941 0)
(145.305399 1.40936963 0)
(145.154767 1.44864191 0)
(145.001235 1.48454318 0)
(144.84452 1.52376989 0)
(144.683575 1.56818393 0)
(144.517317 1.61605781 0)
(144.345088 1.66411561 0)
(144.166781 1.70930072 0)
(143.982726 1.74967201 0)
(143.79349 1.78442574 0)
(143.599709 1.81342659 0)
(143.402021 1.83668854 0)
(143.201067 1.85406981 0)
(142.997518 1.86521896 0)
(142.792115 1.86966937 0)
(142.585673 1.86695903 0)
(142.379075 1.85670492 0)
(142.173257 1.83862304 0)
(141.969193 1.81251795 0)
(141.76788 1.77826723 0)
(141.570328 1.73581299 0)
(141.377551 1.68516028 0)
(141.190558 1.62637739 0)
(141.010337 1.55959432 0)
(140.837849 1.48499858 0)
(140.674014 1.40282973 0)
(140.519702 1.31337402 0)
(140.375731 1.21695994 0)
(140.242869 1.11395389 0)
(140.121837 1.0047552 0)
(140.013324 0.889790609 0)
(139.917985 0.769508769 0)
(139.836444 0.644376648 0)
(139.769295 0.514879664 0)
(139.717085 0.381522582 0)
(139.680318 0.244844474 0)
(139.659445 0.105443189 0)
(139.655591 -0.0360934201 0)
(139.670557 -0.1791737 0)
(139.702638 -0.323128868 0)
(139.752088 -0.467224589 0)
(139.819033 -0.610657078 0)
(139.903487 -0.752551774 0)
(140.005343 -0.8919718 0)
(140.124357 -1.02792642 0)
(140.260131 -1.15938182 0)
(140.412103 -1.28527726 0)
(140.579542 -1.40454513 0)
(140.761543 -1.51613471 0)
(140.957027 -1.61903972 0)
(141.164745 -1.71232829 0)
(141.383299 -1.79517254 0)
(141.611154 -1.86687532 0)
(141.846667 -1.92689229 0)
(142.088117 -1.97484839 0)
(142.333737 -2.01054804 0)
(142.581747 -2.03397905 0)
(142.83039 -2.04531039 0)
(143.077968 -2.04488425 0)
(143.322865 -2.03320264 0)
(143.563581 -2.01090954 0)
(143.798748 -1.97876958 0)
(144.027148 -1.93764421 0)
(144.247728 -1.8884669 0)
(144.459596 -1.83221799 0)
(144.662035 -1.76990082 0)
(144.854486 -1.70251926 0)
(145.036551 -1.63105789 0)
(145.207979 -1.55646486 0)
(145.368653 -1.47963776 0)
(145.518574 -1.4014126 0)
(145.657854 -1.32255581 0)
(145.786692 -1.24375895 0)
(145.905364 -1.165636 0)
(146.014212 -1.08872279 0)
(146.113623 -1.01347839 0)
(146.204024 -0.940287872 0)
(146.285867 -0.869466416 0)
(146.359623 -0.80126416 0)
(146.425769 -0.735871691 0)
(146.484787 -0.673425979 0)
(146.537152 -0.614016468 0)
(146.583333 -0.55769101 0)
(146.623782 -0.504461328 0)
(146.658939 -0.454307999 0)
(146.689224 -0.407185119 0)
(146.715037 -0.363024996 0)
(146.736765 -0.321743022 0)
(146.754772 -0.283242334 0)
(146.769398 -0.247417616 0)
(146.780962 -0.214157702 0)
(146.789754 -0.183347075 0)
(146.796043 -0.154866873 0)
(146.800074 -0.12859601 0)
(146.802074 -0.104412561 0)
(146.802254 -0.0821953951 0)
(146.800812 -0.0618261175 0)
(146.797937 -0.0431916319 0)
(146.7938 -0.0261875866 0)
(146.788529 -0.0107185213 0)
(146.782167 0.00339188542 0)
(146.775044 0.016161477 0)
(146.767248 0.0276372749 0)
(146.758809 0.0379196594 0)
(146.749779 0.0471128706 0)
(146.740226 0.0552950435 0)
(146.730239 0.0625406745 0)
(146.719922 0.0689304624 0)
(146.70935 0.0745480566 0)
(146.698574 0.0794694845 0)
(146.687633 0.0837608244 0)
(146.676569 0.087479723 0)
(146.66542 0.0906747276 0)
(146.65422 0.0933862609 0)
(146.643001 0.0956499315 0)
(146.631794 0.0974989354 0)
(146.620627 0.0989650913 0)
(146.609523 0.100078712 0)
(146.598503 0.100868491 0)
(146.587587 0.101361525 0)
(146.576792 0.101583338 0)
(146.566132 0.101558044 0)
(146.555624 0.101308188 0)
(146.545277 0.100854526 0)
(146.535104 0.100216027 0)
(146.525113 0.0994099861 0)
(146.515311 0.0984521865 0)
(146.505703 0.0973570722 0)
(146.496296 0.0961379186 0)
(146.487091 0.0948069802 0)
(146.478092 0.0933756046 0)
(146.469301 0.0918543137 0)
(146.460718 0.0902528479 0)
(146.452346 0.0885801882 0)
(146.444186 0.0868445672 0)
(146.436238 0.0850534743 0)
(146.428503 0.0832136756 0)
(146.420982 0.0813312556 0)
(146.413675 0.0794116508 0)
(146.406583 0.0774596645 0)
(146.399706 0.0754794803 0)
(146.393044 0.0734746556 0)
(146.386598 0.0714482239 0)
(146.380363 0.0694023776 0)
(146.37435 0.0673397342 0)
(146.368525 0.0652583369 0)
(146.363002 0.0631726852 0)
(146.3574 0.0610200817 0)
(146.353107 0.0591049647 0)
(146.34281 0.0559059031 0)
(146.525427 0.0800933465 0)
(146.50456 0.219773117 0)
(146.468719 0.312024956 0)
(146.420719 0.349144122 0)
(146.369088 0.335153993 0)
(146.32068 0.277858039 0)
(146.280697 0.18329325 0)
(146.254029 0.056044386 0)
(146.246666 -0.0957857004 0)
(146.261006 -0.256889344 0)
(146.296633 -0.403526258 0)
(146.350518 -0.508640029 0)
(146.416144 -0.549569438 0)
(146.484629 -0.514606401 0)
(146.546327 -0.405896048 0)
(146.592522 -0.238150053 0)
(146.616962 -0.034359405 0)
(146.620071 0.179937318 0)
(146.598563 0.380321068 0)
(146.554233 0.547648351 0)
(146.491671 0.669487635 0)
(146.416802 0.739896334 0)
(146.336124 0.758353148 0)
(146.256078 0.72844598 0)
(146.182598 0.656904779 0)
(146.12076 0.553331084 0)
(146.074398 0.430561354 0)
(146.045655 0.305082818 0)
(146.034469 0.196602407 0)
(146.038199 0.1260418 0)
(146.051593 0.111926139 0)
(146.067185 0.166028234 0)
(146.076135 0.289701378 0)
(146.06962 0.472345029 0)
(146.040509 0.692905138 0)
(145.984715 0.924375783 0)
(145.901797 1.1401614 0)
(145.794657 1.32035322 0)
(145.66845 1.45585954 0)
(145.529043 1.5490435 0)
(145.381535 1.61084727 0)
(145.229282 1.65574929 0)
(145.073646 1.69664589 0)
(144.914401 1.74151114 0)
(144.750493 1.79264866 0)
(144.580793 1.84811321 0)
(144.404578 1.90409069 0)
(144.22168 1.95698106 0)
(144.032388 2.00447079 0)
(143.837248 2.04557858 0)
(143.636896 2.08011628 0)
(143.431984 2.10808152 0)
(143.223179 2.12929586 0)
(143.011191 2.14333691 0)
(142.79681 2.14964653 0)
(142.58091 2.14767094 0)
(142.364445 2.13694881 0)
(142.148427 2.11713574 0)
(141.933913 2.08799244 0)
(141.721986 2.04936667 0)
(141.513739 2.00118355 0)
(141.310264 1.94344433 0)
(141.112637 1.87622806 0)
(140.921908 1.7996912 0)
(140.739095 1.71406365 0)
(140.565177 1.61964139 0)
(140.401095 1.51677688 0)
(140.247749 1.40586846 0)
(140.105993 1.28734979 0)
(139.976625 1.16168039 0)
(139.860391 1.0293385 0)
(139.757976 0.890816765 0)
(139.670019 0.746621118 0)
(139.597115 0.597272613 0)
(139.539836 0.443313525 0)
(139.498736 0.285314221 0)
(139.474333 0.123875406 0)
(139.467937 -0.0403596897 0)
(139.481559 -0.206645235 0)
(139.513191 -0.374154067 0)
(139.563142 -0.542026827 0)
(139.631651 -0.709329564 0)
(139.718847 -0.875032651 0)
(139.824724 -1.03802014 0)
(139.94912 -1.19710047 0)
(140.09169 -1.35102041 0)
(140.251895 -1.49848794 0)
(140.428987 -1.6382015 0)
(140.622004 -1.7688823 0)
(140.829769 -1.88930821 0)
(141.050904 -1.99834849 0)
(141.283844 -2.09499779 0)
(141.526865 -2.1784081 0)
(141.77811 -2.24791649 0)
(142.035629 -2.30306724 0)
(142.297417 -2.34362631 0)
(142.561459 -2.36958741 0)
(142.825767 -2.38116936 0)
(143.088425 -2.37880542 0)
(143.347625 -2.36312538 0)
(143.601697 -2.33493189 0)
(143.849135 -2.2951726 0)
(144.088617 -2.24490944 0)
(144.319012 -2.1852869 0)
(144.53939 -2.11750048 0)
(144.74902 -2.04276681 0)
(144.947361 -1.96229621 0)
(145.134055 -1.87726866 0)
(145.308907 -1.78881347 0)
(145.471876 -1.69799286 0)
(145.623053 -1.60578958 0)
(145.762641 -1.51309824 0)
(145.890942 -1.42072011 0)
(146.008334 -1.32936095 0)
(146.115257 -1.23963146 0)
(146.212198 -1.15204984 0)
(146.299674 -1.06704596 0)
(146.378226 -0.984966902 0)
(146.448405 -0.906083274 0)
(146.51076 -0.830596183 0)
(146.565839 -0.75864457 0)