/*--------------------------------*- C++ -*----------------------------------*\
| =========                 |                                                 |
| \\      /  F ield         | OpenFOAM: The Open Source CFD Toolbox           |
|  \\    /   O peration     | Version:  v2012                                 |
|   \\  /    A nd           | Website:  www.openfoam.com                      |
|    \\/     M anipulation  |                                                 |
\*---------------------------------------------------------------------------*/
FoamFile
{
    version     2.0;
    format      ascii;
    class       volVectorField;
    location    "2.19";
    object      HbyA;
}
// * * * * * * * * * * * * * * * * * * * * * * * * * * * * * * * * * * * * * //

dimensions      [0 1 -1 0 0 0 0];


internalField   nonuniform List<vector> 
28416
(
(0.0999980636 1.11415783e-05 0)
(0.0999845341 3.0214246e-05 0)
(0.0999611831 4.17572654e-05 0)
(0.0999326382 4.38145463e-05 0)
(0.0999038685 3.67986835e-05 0)
(0.0998784873 2.22026937e-05 0)
(0.0998598466 9.84694902e-07 0)
(0.0998480411 -2.7214561e-05 0)
(0.099842635 -5.93804697e-05 0)
(0.0998461306 -9.11413791e-05 0)
(0.0998593993 -0.000117560812 0)
(0.0998808266 -0.000133349956 0)
(0.0999070764 -0.000134357213 0)
(0.099933764 -0.000118835903 0)
(0.0999563048 -8.78945002e-05 0)
(0.0999709498 -4.5070248e-05 0)
(0.0999763192 4.518447e-06 0)
(0.0999698785 5.40343277e-05 0)
(0.0999499123 9.97606891e-05 0)
(0.0999191346 0.000138186998 0)
(0.099880656 0.000166428157 0)
(0.0998371693 0.000182952988 0)
(0.099791377 0.000187555315 0)
(0.0997458915 0.000181158115 0)
(0.0997030562 0.000165674031 0)
(0.0996649061 0.000143850745 0)
(0.0996330252 0.000119129909 0)
(0.0996082451 9.55209291e-05 0)
(0.0995903136 7.73663059e-05 0)
(0.0995776576 6.88779352e-05 0)
(0.0995673725 7.3468502e-05 0)
(0.0995555756 9.30214794e-05 0)
(0.0995380797 0.000127283799 0)
(0.0995111538 0.00017364395 0)
(0.0994721741 0.000227523476 0)
(0.0994200488 0.000283348801 0)
(0.0993553045 0.000335819401 0)
(0.0992797868 0.000381076718 0)
(0.0991960655 0.000417404191 0)
(0.0991067399 0.000445251113 0)
(0.0990138633 0.000466626508 0)
(0.0989186424 0.000484144222 0)
(0.0988214567 0.000500104192 0)
(0.0987221171 0.000515922957 0)
(0.0986202147 0.000532028408 0)
(0.0985154136 0.000548121609 0)
(0.0984076035 0.000563586832 0)
(0.098296913 0.000577838391 0)
(0.0981836359 0.000590492744 0)
(0.0980681414 0.000601371566 0)
(0.0979508117 0.000610413293 0)
(0.0978320205 0.000617577834 0)
(0.0977121408 0.000622793097 0)
(0.097591561 0.000625948447 0)
(0.0974706969 0.000626914686 0)
(0.097349995 0.000625567448 0)
(0.0972299281 0.000621801346 0)
(0.0971109894 0.000615533787 0)
(0.0969936867 0.000606703146 0)
(0.0968785373 0.000595265998 0)
(0.0967660642 0.000581195608 0)
(0.0966567915 0.000564481679 0)
(0.0965512401 0.000545130683 0)
(0.0964499217 0.000523166436 0)
(0.0963533347 0.000498631048 0)
(0.096261959 0.000471586553 0)
(0.0961762544 0.000442117152 0)
(0.0960966592 0.000410331507 0)
(0.0960235928 0.000376363965 0)
(0.0959574591 0.000340373727 0)
(0.0958986507 0.000302541095 0)
(0.0958475525 0.000263062037 0)
(0.0958045427 0.000222138731 0)
(0.0957700005 0.000179968844 0)
(0.0957443153 0.000136733454 0)
(0.0957278536 9.25567164e-05 0)
(0.0957206228 4.74469732e-05 0)
(0.0957217699 1.69843637e-06 0)
(0.0957321728 -4.36328739e-05 0)
(0.0957531306 -8.89163979e-05 0)
(0.0957840924 -0.000134149141 0)
(0.095824761 -0.000179052125 0)
(0.0958750894 -0.000223355594 0)
(0.095934944 -0.000266814714 0)
(0.0960040668 -0.000309170306 0)
(0.0960821342 -0.000350150047 0)
(0.0961687595 -0.000389475236 0)
(0.0962634814 -0.000426860223 0)
(0.0963657686 -0.000462014636 0)
(0.0964750322 -0.000494651615 0)
(0.0965906337 -0.000524499543 0)
(0.0967118917 -0.000551314559 0)
(0.0968380883 -0.00057489147 0)
(0.0969684744 -0.000595071251 0)
(0.0971022766 -0.000611744606 0)
(0.0972387048 -0.000624852359 0)
(0.0973769615 -0.000634383949 0)
(0.0975162525 -0.000640375089 0)
(0.0976557984 -0.000642905071 0)
(0.0977948451 -0.00064209372 0)
(0.0979326738 -0.000638097825 0)
(0.0980686094 -0.000631106899 0)
(0.0982020277 -0.000621338266 0)
(0.0983323607 -0.000609031605 0)
(0.0984591008 -0.000594443173 0)
(0.0985818035 -0.000577839968 0)
(0.0987000881 -0.000559494033 0)
(0.0988136381 -0.000539677147 0)
(0.0989221997 -0.000518656057 0)
(0.0990255799 -0.000496688358 0)
(0.0991236429 -0.000474019061 0)
(0.0992163069 -0.000450877833 0)
(0.0993035395 -0.000427476868 0)
(0.0993853531 -0.000404009338 0)
(0.0994618002 -0.000380648443 0)
(0.0995329685 -0.000357547063 0)
(0.0995989759 -0.000334837916 0)
(0.0996599655 -0.000312634128 0)
(0.0997160997 -0.000291029905 0)
(0.0997675566 -0.000270100725 0)
(0.0998145316 -0.000249903733 0)
(0.0998572374 -0.000230481633 0)
(0.0998958973 -0.000211865372 0)
(0.0999307395 -0.000194075804 0)
(0.0999619932 -0.000177124988 0)
(0.0999898861 -0.000161017486 0)
(0.100014642 -0.000145751835 0)
(0.10003648 -0.00013132209 0)
(0.10005561 -0.000117719093 0)
(0.100072232 -0.000104931203 0)
(0.100086537 -9.29443327e-05 0)
(0.100098699 -8.17412906e-05 0)
(0.100108882 -7.13003883e-05 0)
(0.100117236 -6.15931744e-05 0)
(0.1001239 -5.25839977e-05 0)
(0.100129006 -4.42307e-05 0)
(0.100132683 -3.6485391e-05 0)
(0.100135056 -2.92956375e-05 0)
(0.100136258 -2.26069017e-05 0)
(0.100136433 -1.63679893e-05 0)
(0.100135751 -1.05392622e-05 0)
(0.100134409 -5.10938806e-06 0)
(0.100132712 -1.60179614e-07 0)
(0.100130477 4.0805061e-06 0)
(0.1001273 7.79393464e-06 0)
(0.100123289 1.11904297e-05 0)
(0.100118675 1.43622487e-05 0)
(0.100113637 1.73323407e-05 0)
(0.100108286 2.00932105e-05 0)
(0.100102686 2.26332804e-05 0)
(0.100096888 2.49430424e-05 0)
(0.100090932 2.70148868e-05 0)
(0.100084849 2.88467851e-05 0)
(0.100078655 3.04442565e-05 0)
(0.100072367 3.18189685e-05 0)
(0.100065999 3.2986532e-05 0)
(0.100059568 3.39646547e-05 0)
(0.10005309 3.47716531e-05 0)
(0.100046581 3.54252946e-05 0)
(0.100040061 3.59420038e-05 0)
(0.100033546 3.6336422e-05 0)
(0.100027053 3.66212338e-05 0)
(0.100020598 3.68071632e-05 0)
(0.100014195 3.6903135e-05 0)
(0.100007857 3.69165433e-05 0)
(0.100001595 3.68535519e-05 0)
(0.0999954189 3.67194063e-05 0)
(0.0999893364 3.65187421e-05 0)
(0.0999833537 3.6255863e-05 0)
(0.0999774762 3.59349607e-05 0)
(0.0999717079 3.5560259e-05 0)
(0.0999660523 3.51360815e-05 0)
(0.0999605121 3.466685e-05 0)
(0.09995509 3.41570321e-05 0)
(0.099949788 3.36110635e-05 0)
(0.0999446085 3.30332505e-05 0)
(0.0999395535 3.24276429e-05 0)
(0.0999346253 3.17979204e-05 0)
(0.099929826 3.11473433e-05 0)
(0.0999251576 3.04787644e-05 0)
(0.099920622 2.979466e-05 0)
(0.099916221 2.90971475e-05 0)
(0.0999119567 2.83880441e-05 0)
(0.099907829 2.76687269e-05 0)
(0.0999038464 2.69408362e-05 0)
(0.0998999888 2.62032738e-05 0)
(0.0998963364 2.54647178e-05 0)
(0.0998926379 2.46883607e-05 0)
(0.099889824 2.4027262e-05 0)
(0.099885002 2.27738756e-05 0)
(0.0999985708 2.39829252e-05 0)
(0.0999864617 6.47135663e-05 0)
(0.0999628923 8.99801135e-05 0)
(0.0999320166 9.73059518e-05 0)
(0.0998995664 8.80854237e-05 0)
(0.0998696655 6.50898109e-05 0)
(0.0998448901 3.02179835e-05 0)
(0.0998278806 -1.59600616e-05 0)
(0.0998215617 -6.95091548e-05 0)
(0.099827551 -0.000123902433 0)
(0.0998459088 -0.000170767429 0)
(0.0998750069 -0.000201091404 0)
(0.0999110938 -0.000207714362 0)
(0.099948877 -0.000187432723 0)
(0.0999825394 -0.000141814647 0)
(0.10000686 -7.65704642e-05 0)
(0.100017547 -2.42293634e-07 0)
(0.100012708 7.6836879e-05 0)
(0.0999925503 0.000147678658 0)
(0.0999585729 0.000206703102 0)
(0.0999140677 0.000249812845 0)
(0.0998629241 0.000275001086 0)
(0.0998090369 0.00028218071 0)
(0.0997560791 0.000272752631 0)
(0.0997073091 0.00024933684 0)
(0.0996654256 0.000215666465 0)
(0.0996324143 0.000176600332 0)
(0.099609297 0.000138134284 0)
(0.0995958075 0.000107148224 0)
(0.0995901418 9.06583893e-05 0)
(0.0995889379 9.45843365e-05 0)
(0.0995875569 0.000122320772 0)
(0.0995806865 0.00017360693 0)
(0.0995632419 0.000244195402 0)
(0.0995313596 0.000326570099 0)
(0.0994831601 0.000411596653 0)
(0.0994190231 0.000490648513 0)
(0.099341288 0.000557552597 0)
(0.0992534744 0.000609732913 0)
(0.0991592813 0.000648211863 0)
(0.0990616965 0.000676558138 0)
(0.098962485 0.000699261341 0)
(0.0988621571 0.000720184746 0)
(0.0987603249 0.000741624717 0)
(0.0986562257 0.000764167808 0)
(0.0985491808 0.000787172778 0)
(0.0984388497 0.000809495762 0)
(0.0983252627 0.000830092062 0)
(0.0982087115 0.000848304712 0)
(0.0980896052 0.000863855533 0)
(0.0979683671 0.000876678667 0)
(0.0978453958 0.000886746745 0)
(0.0977210759 0.000893974345 0)
(0.0975958044 0.000898206102 0)
(0.0974700114 0.000899252069 0)
(0.0973441662 0.00089692881 0)
(0.0972187725 0.00089108383 0)
(0.0970943594 0.000881601621 0)
(0.0969714724 0.000868399917 0)
(0.0968506674 0.000851424758 0)
(0.096732506 0.000830648256 0)
(0.0966175505 0.00080606891 0)
(0.0965063599 0.000777712788 0)
(0.0963994847 0.00074563425 0)
(0.0962974634 0.00070991578 0)
(0.0962008187 0.000670667004 0)
(0.0961100556 0.000628023087 0)
(0.09602566 0.000582142703 0)
(0.0959480977 0.000533205683 0)
(0.0958778141 0.000481410416 0)
(0.0958152335 0.000426971037 0)
(0.0957607592 0.000370114365 0)
(0.0957147688 0.000311074882 0)
(0.0956776192 0.000250091042 0)
(0.0956496196 0.00018738713 0)
(0.0956309419 0.000123157175 0)
(0.095621816 5.75886948e-05 0)
(0.0956226804 -8.94190095e-06 0)
(0.0956337089 -7.54035133e-05 0)
(0.0956549398 -0.000141906095 0)
(0.0956865057 -0.000208256355 0)
(0.0957283814 -0.000274050757 0)
(0.0957804733 -0.000338894195 0)
(0.0958426402 -0.000402403722 0)
(0.0959146576 -0.000464171042 0)
(0.0959962166 -0.000523769025 0)
(0.096086929 -0.000580767257 0)
(0.0961863243 -0.000634739091 0)
(0.0962938526 -0.000685269264 0)
(0.0964088915 -0.000731964559 0)
(0.0965307539 -0.000774464503 0)
(0.096658695 -0.000812450831 0)
(0.0967919201 -0.000845655826 0)
(0.0969295934 -0.000873869442 0)
(0.0970708479 -0.000896944901 0)
(0.0972147969 -0.000914802431 0)
(0.0973605467 -0.000927430947 0)
(0.0975072101 -0.000934887581 0)
(0.0976539196 -0.000937295131 0)
(0.0977998402 -0.000934837653 0)
(0.0979441807 -0.000927754525 0)
(0.0980862041 -0.000916333326 0)
(0.0982252348 -0.000900901849 0)
(0.0983606653 -0.000881819602 0)
(0.0984919603 -0.000859469072 0)
(0.0986186588 -0.000834247094 0)
(0.0987403747 -0.00080655657 0)
(0.0988567962 -0.000776798793 0)
(0.0989676832 -0.000745366566 0)
(0.099072864 -0.000712638237 0)
(0.0991722306 -0.000678972725 0)
(0.099265734 -0.000644705579 0)
(0.0993533786 -0.000610146042 0)
(0.0994352159 -0.000575575021 0)
(0.0995113389 -0.000541243943 0)
(0.0995818763 -0.000507374352 0)
(0.0996469863 -0.000474158091 0)
(0.0997068517 -0.000441757924 0)
(0.0997616747 -0.000410308302 0)
(0.0998116729 -0.000379915726 0)
(0.0998570769 -0.000350659807 0)
(0.0998981276 -0.000322598675 0)
(0.0999350719 -0.000295773038 0)
(0.0999681583 -0.000270208844 0)
(0.0999976339 -0.000245919306 0)
(0.100023741 -0.000222906668 0)
(0.100046715 -0.000201163758 0)
(0.100066783 -0.000180675296 0)
(0.100084163 -0.000161418904 0)
(0.100099061 -0.000143365978 0)
(0.100111673 -0.000126482531 0)
(0.100122184 -0.000110729818 0)
(0.100130769 -9.60643816e-05 0)
(0.100137591 -8.24372034e-05 0)
(0.100142804 -6.97936717e-05 0)
(0.100146555 -5.80741397e-05 0)
(0.100148982 -4.72147469e-05 0)
(0.100150221 -3.71490974e-05 0)
(0.100150402 -2.78116971e-05 0)
(0.100149655 -1.9144942e-05 0)
(0.100148105 -1.1112784e-05 0)
(0.100145808 -3.73846137e-06 0)
(0.100142794 2.92548026e-06 0)
(0.100139186 8.70741922e-06 0)
(0.100135082 1.37782163e-05 0)
(0.10013049 1.83128224e-05 0)
(0.100125423 2.24105591e-05 0)
(0.100119948 2.61259639e-05 0)
(0.100114138 2.9491287e-05 0)
(0.100108053 3.25324822e-05 0)
(0.100101748 3.52704111e-05 0)
(0.100095274 3.77189665e-05 0)
(0.100088672 3.9888548e-05 0)
(0.100081978 4.1789799e-05 0)
(0.100075218 4.34350404e-05 0)
(0.100068414 4.48384539e-05 0)
(0.100061586 4.60157341e-05 0)
(0.100054751 4.69834681e-05 0)
(0.100047922 4.77584318e-05 0)
(0.100041115 4.83569854e-05 0)
(0.100034344 4.87947028e-05 0)
(0.10002762 4.90862552e-05 0)
(0.100020955 4.92451887e-05 0)
(0.100014362 4.9283752e-05 0)
(0.100007848 4.92129072e-05 0)
(0.100001425 4.9042445e-05 0)
(0.099995098 4.87811279e-05 0)
(0.0999888754 4.84368427e-05 0)
(0.0999827624 4.80167509e-05 0)
(0.099976764 4.75274265e-05 0)
(0.0999708843 4.69749698e-05 0)
(0.0999651267 4.63650949e-05 0)
(0.099959494 4.57031871e-05 0)
(0.0999539888 4.49943344e-05 0)
(0.099948613 4.42433322e-05 0)
(0.0999433685 4.3454681e-05 0)
(0.0999382568 4.26325898e-05 0)
(0.0999332793 4.17809564e-05 0)
(0.0999284372 4.0903328e-05 0)
(0.0999237317 4.00028764e-05 0)
(0.0999191639 3.90824013e-05 0)
(0.0999147347 3.81443186e-05 0)
(0.0999104459 3.71907039e-05 0)
(0.0999062964 3.6223061e-05 0)
(0.0999022944 3.52431231e-05 0)
(0.0998984179 3.42492221e-05 0)
(0.099894748 3.32507385e-05 0)
(0.0998910193 3.22049664e-05 0)
(0.0998881815 3.12935793e-05 0)
(0.0998832113 2.96640718e-05 0)
(0.0999983262 3.00908375e-05 0)
(0.0999856057 8.15075198e-05 0)
(0.0999621374 0.000114036401 0)
(0.0999319999 0.000125202537 0)
(0.0999004888 0.000116936772 0)
(0.0998714958 9.24881894e-05 0)
(0.0998477754 5.42955444e-05 0)
(0.099831596 4.39558051e-06 0)
(0.0998253882 -5.39639382e-05 0)
(0.0998310469 -0.000115070437 0)
(0.0998487121 -0.000169429028 0)
(0.0998766733 -0.000206459556 0)
(0.0999112836 -0.000217603308 0)
(0.0999474551 -0.000198789239 0)
(0.0999796222 -0.000151430945 0)
(0.100002693 -8.17832813e-05 0)
(0.10001287 8.21082648e-07 0)
(0.100008666 8.68793859e-05 0)
(0.0999904162 0.000166596865 0)
(0.0999594827 0.000232771703 0)
(0.0999184155 0.000280805517 0)
(0.0998705844 0.000308501426 0)
(0.0998196081 0.000315757591 0)
(0.0997689651 0.0003041199 0)
(0.0997217993 0.000276432606 0)
(0.0996807972 0.000236728242 0)
(0.0996480229 0.000190319279 0)
(0.0996246511 0.000143880387 0)
(0.0996106231 0.000105201553 0)
(0.0996043413 8.23600614e-05 0)
(0.0996025723 8.23204593e-05 0)
(0.0996007444 0.000109298114 0)
(0.0995936699 0.000163418208 0)
(0.0995764662 0.000240197918 0)
(0.0995454216 0.000331205174 0)
(0.0994986416 0.000425861577 0)
(0.0994363089 0.000513917878 0)
(0.0993604489 0.000587840007 0)
(0.0992742525 0.000644322542 0)
(0.0991811712 0.000684440571 0)
(0.0990840812 0.000712470916 0)
(0.098984772 0.000733930769 0)
(0.0988838697 0.000753642264 0)
(0.0987811311 0.000774512803 0)
(0.0986759126 0.000797308956 0)
(0.0985676021 0.000821234681 0)
(0.0984558737 0.000844841491 0)
(0.0983407393 0.000866800314 0)
(0.0982224631 0.000886280833 0)
(0.098101434 0.000902947498 0)
(0.0979780689 0.000916746811 0)
(0.0978527732 0.000927679899 0)
(0.0977259456 0.00093567306 0)
(0.0975980007 0.000940558847 0)
(0.0974693876 0.000942120386 0)
(0.0973405954 0.000940144638 0)
(0.0972121493 0.000934454539 0)
(0.0970846015 0.000924917045 0)
(0.0969585233 0.000911438087 0)
(0.0968344977 0.000893955655 0)
(0.0967131144 0.000872436218 0)
(0.0965949648 0.00084687433 0)
(0.0964806364 0.000817293262 0)
(0.0963707072 0.000783745135 0)
(0.0962657403 0.000746310267 0)
(0.0961662787 0.000705096294 0)
(0.0960728419 0.000660237502 0)
(0.0959859239 0.000611894333 0)
(0.0959059945 0.000560252424 0)
(0.095833501 0.000505520332 0)
(0.0957688714 0.000447926009 0)
(0.0957125153 0.000387711858 0)
(0.0956648238 0.000325130561 0)
(0.0956261634 0.000260443398 0)
(0.095596874 0.000193914443 0)
(0.0955772783 0.000125834274 0)
(0.0955675632 5.65741958e-05 0)
(0.0955677795 -1.35318281e-05 0)
(0.0955782133 -8.42493461e-05 0)
(0.0955992272 -0.000155218488 0)
(0.0956309064 -0.000226107227 0)
(0.0956732163 -0.00029654719 0)
(0.0957260955 -0.000366120843 0)
(0.0957894215 -0.000434387854 0)
(0.0958629798 -0.000500890372 0)
(0.095946468 -0.00056515397 0)
(0.0960395016 -0.000626695356 0)
(0.0961416108 -0.000685030272 0)
(0.0962522388 -0.000739681946 0)
(0.0963707468 -0.000790192531 0)
(0.0964964189 -0.000836136712 0)
(0.0966284694 -0.000877135592 0)
(0.0967660519 -0.000912869371 0)
(0.0969082698 -0.000943087611 0)
(0.0970541899 -0.000967616324 0)
(0.0972028562 -0.000986361776 0)
(0.097353306 -0.000999311403 0)
(0.0975045847 -0.00100653234 0)
(0.0976557615 -0.00100816786 0)
(0.0978059434 -0.00100443199 0)
(0.0979542882 -0.000995602422 0)
(0.0981000153 -0.000982012067 0)
(0.0982424144 -0.000964039475 0)
(0.0983808523 -0.000942098603 0)
(0.0985147768 -0.000916628328 0)
(0.0986437192 -0.000888082148 0)
(0.098767294 -0.000856918393 0)
(0.098885197 -0.000823591263 0)
(0.0989972026 -0.000788542915 0)
(0.0991031584 -0.0007521967 0)
(0.0992029803 -0.000714951643 0)
(0.0992966463 -0.000677178177 0)
(0.0993841893 -0.000639215056 0)
(0.0994656909 -0.000601367359 0)
(0.0995412747 -0.00056390552 0)
(0.0996110992 -0.000527065242 0)
(0.0996753519 -0.00049104811 0)
(0.0997342436 -0.000456022777 0)
(0.0997880027 -0.000422126544 0)
(0.0998368712 -0.000389467216 0)
(0.0998811008 -0.000358125643 0)
(0.0999209496 -0.000328159269 0)
(0.0999566783 -0.000299605422 0)
(0.099988547 -0.000272484021 0)
(0.100016813 -0.000246799896 0)
(0.100041727 -0.000222544979 0)
(0.100063533 -0.000199700502 0)
(0.100082468 -0.000178239238 0)
(0.100098757 -0.000158127509 0)
(0.100112614 -0.000139326638 0)
(0.100124241 -0.00012179375 0)
(0.100133824 -0.000105482072 0)
(0.100141539 -9.03411599e-05 0)
(0.100147547 -7.63176792e-05 0)
(0.100152001 -6.335603e-05 0)
(0.100155043 -5.13993219e-05 0)
(0.100156806 -4.03911683e-05 0)
(0.100157419 -3.0278232e-05 0)
(0.100157003 -2.10133034e-05 0)
(0.100155669 -1.25570911e-05 0)
(0.100153495 -4.87120156e-06 0)
(0.100150573 2.12609282e-06 0)
(0.100147038 8.50939928e-06 0)
(0.100142965 1.43174012e-05 0)
(0.10013835 1.95522926e-05 0)
(0.100133217 2.42405095e-05 0)
(0.100127659 2.84415772e-05 0)
(0.100121777 3.22028808e-05 0)
(0.10011565 3.55543071e-05 0)
(0.100109327 3.85228691e-05 0)
(0.100102846 4.1136804e-05 0)
(0.100096236 4.34223393e-05 0)
(0.100089522 4.54032572e-05 0)
(0.100082725 4.71023483e-05 0)
(0.100075863 4.854161e-05 0)
(0.100068957 4.97417489e-05 0)
(0.100062024 5.07220752e-05 0)
(0.100055082 5.15009395e-05 0)
(0.100048149 5.20958672e-05 0)
(0.100041241 5.25233983e-05 0)
(0.100034372 5.27988509e-05 0)
(0.100027558 5.29360269e-05 0)
(0.100020812 5.29472698e-05 0)
(0.100014145 5.28436593e-05 0)
(0.100007566 5.2635142e-05 0)
(0.100001085 5.2330653e-05 0)
(0.0999947092 5.19382721e-05 0)
(0.099988444 5.14653868e-05 0)
(0.0999822946 5.09188403e-05 0)
(0.099976265 5.03050511e-05 0)
(0.0999703582 4.96300958e-05 0)
(0.0999645768 4.88997555e-05 0)
(0.099958923 4.81195278e-05 0)
(0.0999533985 4.72946164e-05 0)
(0.0999480049 4.64299077e-05 0)
(0.0999427438 4.55299522e-05 0)
(0.0999376166 4.45989652e-05 0)
(0.0999326246 4.36408131e-05 0)
(0.0999277694 4.26589801e-05 0)
(0.0999230519 4.16565439e-05 0)
(0.0999184733 4.06361766e-05 0)
(0.0999140343 3.9600135e-05 0)
(0.0999097364 3.85503023e-05 0)
(0.0999055784 3.74879735e-05 0)
(0.0999015675 3.64145816e-05 0)
(0.099897682 3.53284395e-05 0)
(0.0998940004 3.42379824e-05 0)
(0.0998902659 3.3102634e-05 0)
(0.0998874154 3.2102406e-05 0)
(0.0998825235 3.03606908e-05 0)
(0.0999984212 3.84622806e-05 0)
(0.099985773 0.000104907919 0)
(0.0999616468 0.00014768822 0)
(0.0999299282 0.000163084302 0)
(0.0998962022 0.000153290097 0)
(0.0998648684 0.000122427475 0)
(0.0998392158 7.3611671e-05 0)
(0.0998223747 9.06385606e-06 0)
(0.0998165766 -6.72595428e-05 0)
(0.0998235466 -0.0001470825 0)
(0.0998441547 -0.000218336695 0)
(0.0998766306 -0.000267572689 0)
(0.0999169058 -0.000283714884 0)
(0.0999592993 -0.000261340554 0)
(0.0999975118 -0.000202020874 0)
(0.100025821 -0.000113544226 0)
(0.100040416 -7.61523609e-06 0)
(0.100038699 0.000102591775 0)
(0.10002008 0.000205028349 0)
(0.0999868019 0.000290237063 0)
(0.0999422405 0.00035213413 0)
(0.0998903359 0.000387900397 0)
(0.0998352192 0.000397424667 0)
(0.0997809168 0.000382690573 0)
(0.0997311069 0.00034731729 0)
(0.0996888967 0.000296403117 0)
(0.0996565828 0.000236652634 0)
(0.0996353534 0.000176517679 0)
(0.0996249598 0.000125927725 0)
(0.0996234871 9.52603159e-05 0)
(0.0996273674 9.35350958e-05 0)
(0.0996316857 0.000126256178 0)
(0.0996307721 0.000193637609 0)
(0.0996191094 0.000289955737 0)
(0.0995923962 0.000404435269 0)
(0.0995483893 0.000523578263 0)
(0.0994872291 0.000634328034 0)
(0.0994111606 0.000727100274 0)
(0.0993237502 0.000797694911 0)
(0.0992288581 0.000847481506 0)
(0.0991296996 0.000881904039 0)
(0.0990282765 0.000907995652 0)
(0.0989252931 0.000931920936 0)
(0.0988204792 0.000957418135 0)
(0.0987131069 0.000985498282 0)
(0.0986024668 0.00101516867 0)
(0.0984881531 0.00104458619 0)
(0.0983701267 0.00107204341 0)
(0.0982486274 0.00109646058 0)
(0.0981240378 0.00111738988 0)
(0.0979967784 0.0011347502 0)
(0.0978672629 0.00114853837 0)
(0.0977359026 0.00115866189 0)
(0.0976031292 0.00116491149 0)
(0.0974694145 0.00116701508 0)
(0.0973352762 0.00116470462 0)
(0.0972012735 0.00115775709 0)
(0.0970679963 0.00114600517 0)
(0.0969360563 0.00112933123 0)
(0.0968060778 0.00110765885 0)
(0.096678692 0.00108094857 0)
(0.0965545301 0.001049198 0)
(0.0964342181 0.00101244331 0)
(0.0963183713 0.00097075989 0)
(0.0962075905 0.000924261252 0)
(0.0961024588 0.000873096161 0)
(0.0960035407 0.00081744442 0)
(0.0959113793 0.000757511921 0)
(0.0958264939 0.000693525824 0)
(0.0957493766 0.000625730565 0)
(0.0956804894 0.000554385173 0)
(0.0956202627 0.000479761888 0)
(0.0955690952 0.000402145072 0)
(0.0955273562 0.000321831309 0)
(0.0954953864 0.000239130981 0)
(0.0954734822 0.00015436335 0)
(0.0954619405 6.78533482e-05 0)
(0.0954610734 -1.99684239e-05 0)
(0.0954710957 -0.000108570637 0)
(0.0954921463 -0.000197525228 0)
(0.0955243467 -0.000286398289 0)
(0.0955677577 -0.000374695591 0)
(0.0956223661 -0.000461882722 0)
(0.0956880812 -0.000547399361 0)
(0.0957647225 -0.000630657882 0)
(0.0958520129 -0.000711047102 0)
(0.0959495745 -0.000787945107 0)
(0.0960569246 -0.000860733518 0)
(0.0961734756 -0.000928811205 0)
(0.0962985389 -0.000991608733 0)
(0.0964313313 -0.0010486031 0)
(0.0965709853 -0.00109933161 0)
(0.0967165605 -0.00114340462 0)
(0.0968670573 -0.00118051673 0)
(0.0970214334 -0.00121045592 0)
(0.0971786207 -0.00123310988 0)
(0.0973375437 -0.00124846888 0)
(0.097497138 -0.00125662516 0)
(0.0976563692 -0.0012577688 0)
(0.0978142492 -0.00125218062 0)
(0.0979698517 -0.00124022252 0)
(0.0981223248 -0.00122232603 0)
(0.0982709012 -0.00119897945 0)
(0.0984149047 -0.00117071435 0)
(0.0985537551 -0.00113809195 0)
(0.0986869692 -0.00110168981 0)
(0.0988141602 -0.0010620894 0)
(0.0989350345 -0.00101986473 0)
(0.099049387 -0.000975572486 0)
(0.0991570947 -0.000929743707 0)
(0.0992581099 -0.000882877033 0)
(0.0993524518 -0.000835433646 0)
(0.0994401988 -0.000787833723 0)
(0.0995214801 -0.000740454269 0)
(0.0995964674 -0.000693628231 0)
(0.0996653675 -0.000647644662 0)
(0.0997284151 -0.000602749736 0)
(0.0997858663 -0.000559148493 0)
(0.0998379928 -0.00051700715 0)
(0.0998850767 -0.000476455844 0)
(0.0999274064 -0.000437591891 0)
(0.0999652728 -0.000400483488 0)
(0.0999989658 -0.000365173525 0)
(0.100028771 -0.00033168326 0)
(0.100054968 -0.000300015725 0)
(0.100077826 -0.00027015872 0)
(0.100097603 -0.000242087186 0)
(0.100114542 -0.000215765001 0)
(0.100128875 -0.000191146374 0)
(0.100140818 -0.000168177199 0)
(0.100150577 -0.00014679663 0)
(0.100158346 -0.000126938796 0)
(0.100164305 -0.000108534399 0)
(0.100168625 -9.15119945e-05 0)
(0.100171465 -7.57987776e-05 0)
(0.100172971 -6.13211335e-05 0)
(0.100173279 -4.80051533e-05 0)
(0.100172514 -3.57769351e-05 0)
(0.100170791 -2.45625487e-05 0)
(0.100168228 -1.42909041e-05 0)
(0.100165001 -4.90941592e-06 0)
(0.100161206 3.57284045e-06 0)
(0.100156825 1.12510903e-05 0)
(0.100151895 1.81671489e-05 0)
(0.100146504 2.43757379e-05 0)
(0.100140722 2.99549867e-05 0)
(0.100134589 3.49743892e-05 0)
(0.100128137 3.94865277e-05 0)
(0.100121415 4.35303032e-05 0)
(0.100114481 4.71357226e-05 0)
(0.100107391 5.03268647e-05 0)
(0.100100188 5.31250841e-05 0)
(0.100092911 5.55520265e-05 0)
(0.100085594 5.7630383e-05 0)
(0.10007826 5.93834753e-05 0)
(0.100070928 6.08352462e-05 0)
(0.100063615 6.20100925e-05 0)
(0.100056336 6.29319652e-05 0)
(0.100049103 6.36236764e-05 0)
(0.100041929 6.41066093e-05 0)
(0.100034823 6.44004938e-05 0)
(0.100027795 6.45231741e-05 0)
(0.100020854 6.44907518e-05 0)
(0.100014007 6.43178358e-05 0)
(0.100007263 6.4017687e-05 0)
(0.100000627 6.36023202e-05 0)
(0.0999941067 6.30826172e-05 0)
(0.0999877065 6.24684408e-05 0)
(0.0999814313 6.1768743e-05 0)
(0.099975285 6.09916731e-05 0)
(0.099969271 6.01446809e-05 0)
(0.0999633921 5.92346113e-05 0)
(0.0999576506 5.8267787e-05 0)
(0.099952048 5.72500706e-05 0)
(0.0999465859 5.61869138e-05 0)
(0.0999412651 5.50833774e-05 0)
(0.0999360864 5.39441119e-05 0)
(0.0999310502 5.27733369e-05 0)
(0.099926157 5.15748479e-05 0)
(0.0999214069 5.03520275e-05 0)
(0.0999168003 4.91078526e-05 0)
(0.099912337 4.78448734e-05 0)
(0.0999080179 4.6565264e-05 0)
(0.0999038408 4.52705816e-05 0)
(0.0998998128 4.39626633e-05 0)
(0.0998959101 4.26399248e-05 0)
(0.0998922131 4.13128502e-05 0)
(0.0998884489 3.99358951e-05 0)
(0.0998855827 3.87210108e-05 0)
(0.0998805247 3.66439716e-05 0)
(0.0999983894 4.65051647e-05 0)
(0.099985628 0.000127234007 0)
(0.0999614324 0.000180107763 0)
(0.0999297351 0.00020086721 0)
(0.0998960643 0.000192035637 0)
(0.0998647135 0.000158268412 0)
(0.0998388526 0.000103123693 0)
(0.099821236 2.92000101e-05 0)
(0.0998151124 -5.90489827e-05 0)
(0.0998227309 -0.00015231238 0)
(0.0998439751 -0.000236767846 0)
(0.099876981 -0.000296757974 0)
(0.0999178143 -0.00031920999 0)
(0.0999608863 -0.00029746338 0)
(0.100000017 -0.000232937875 0)
(0.100029569 -0.000134327482 0)
(0.100045083 -1.51262764e-05 0)
(0.100044541 0.000109274041 0)
(0.1000281 0.000225252642 0)
(0.0999971998 0.000322020926 0)
(0.0999547886 0.000392452597 0)
(0.0999047023 0.000433126644 0)
(0.0998510743 0.000443779908 0)
(0.0997979545 0.000426550044 0)
(0.0997490471 0.000385394052 0)
(0.0997075137 0.000325921808 0)
(0.0996757582 0.000255605542 0)
(0.0996551374 0.000184021534 0)
(0.0996456134 0.00012259807 0)
(0.0996454378 8.3451719e-05 0)
(0.0996510374 7.72946228e-05 0)
(0.0996573158 0.000110896944 0)
(0.0996584364 0.000184940447 0)
(0.099648841 0.000293126074 0)
(0.0996242136 0.000423086699 0)
(0.0995822247 0.000559049341 0)
(0.0995228657 0.000685554797 0)
(0.0994482281 0.000791101148 0)
(0.0993617725 0.000870517299 0)
(0.0992673238 0.000925292797 0)
(0.0991681231 0.000961867503 0)
(0.0990662292 0.000988679146 0)
(0.0989624019 0.00101319109 0)
(0.0988564048 0.00103997316 0)
(0.098747517 0.00107029612 0)
(0.098635019 0.00110298126 0)
(0.0985184885 0.0011357931 0)
(0.0983978742 0.00116664572 0)
(0.0982734119 0.00119421435 0)
(0.0981454883 0.00121795038 0)
(0.0980145347 0.00123776131 0)
(0.097880981 0.0012536565 0)
(0.0977452587 0.00126553899 0)
(0.0976078246 0.00127316871 0)
(0.0974691807 0.00127622692 0)
(0.0973298797 0.00127439801 0)
(0.0971905203 0.00126742021 0)
(0.0970517358 0.00125509931 0)
(0.0969141844 0.00123730152 0)
(0.09677854 0.00121394286 0)
(0.0966454851 0.0011849834 0)
(0.0965157043 0.00115042615 0)
(0.0963898774 0.00111031729 0)
(0.0962686716 0.00106474516 0)
(0.0961527343 0.00101383737 0)
(0.0960426851 0.000957757087 0)
(0.0959391102 0.000896699415 0)
(0.0958425599 0.000830888321 0)
(0.0957535498 0.000760573713 0)
(0.0956725662 0.000686028031 0)
(0.0956000704 0.000607542499 0)
(0.0955365028 0.000525423352 0)
(0.0954822832 0.000439989402 0)
(0.0954378086 0.000351572116 0)
(0.0954034462 0.000260516236 0)
(0.0953795335 0.000167189995 0)
(0.0953663717 7.20018208e-05 0)
(0.0953642262 -2.46464968e-05 0)
(0.0953733707 -0.000122347902 0)
(0.0953940654 -0.000220644198 0)
(0.0954264878 -0.000319033527 0)
(0.0954707272 -0.00041696666 0)
(0.0955267974 -0.000513846098 0)
(0.0955946328 -0.000609031875 0)
(0.0956740739 -0.000701847342 0)
(0.0957648577 -0.000791586566 0)
(0.095866612 -0.000877525329 0)
(0.0959788495 -0.000958934875 0)
(0.0961009648 -0.00103509812 0)
(0.0962322348 -0.00110532844 0)
(0.0963718236 -0.00116899017 0)
(0.0965187908 -0.00122551875 0)
(0.0966721054 -0.00127443893 0)
(0.0968306618 -0.0013153799 0)
(0.0969933001 -0.00134808643 0)
(0.0971588285 -0.0013724258 0)
(0.0973260465 -0.00138839047 0)
(0.097493768 -0.00139609656 0)
(0.0976608437 -0.00139577829 0)
(0.0978261814 -0.00138777891 0)
(0.0979887641 -0.00137253849 0)
(0.0981476646 -0.0013505793 0)
(0.0983020564 -0.00132248963 0)
(0.0984512216 -0.00128890677 0)
(0.0985945547 -0.00125049995 0)
(0.0987315634 -0.00120795394 0)
(0.0988618663 -0.00116195388 0)
(0.0989851881 -0.00111317162 0)
(0.099101353 -0.00106225411 0)
(0.0992102761 -0.00100981379 0)
(0.0993119544 -0.000956421028 0)
(0.0994064567 -0.000902598681 0)
(0.099493914 -0.000848818537 0)
(0.0995745091 -0.000795499418 0)
(0.0996484677 -0.000743006837 0)
(0.0997160489 -0.000691653919 0)
(0.0997775377 -0.000641703327 0)
(0.0998332375 -0.000593370014 0)
(0.0998834635 -0.00054682458 0)
(0.0999285372 -0.000502196998 0)
(0.099968782 -0.00045958066 0)
(0.100004519 -0.000419036541 0)
(0.100036062 -0.000380597244 0)
(0.100063719 -0.000344270729 0)
(0.100087784 -0.000310043704 0)
(0.100108541 -0.000277884818 0)
(0.100126262 -0.000247747857 0)
(0.100141208 -0.000219575065 0)
(0.100153624 -0.000193300331 0)
(0.100163741 -0.000168851778 0)
(0.100171774 -0.000146153538 0)
(0.100177921 -0.000125126776 0)
(0.100182362 -0.000105690378 0)
(0.100185266 -8.77617095e-05 0)
(0.100186785 -7.12575679e-05 0)
(0.100187062 -5.6095291e-05 0)
(0.100186233 -4.2194084e-05 0)
(0.100184424 -2.94767682e-05 0)
(0.100181753 -1.78721331e-05 0)
(0.100178307 -7.31503562e-06 0)
(0.100174071 2.31485184e-06 0)
(0.100169186 1.10296817e-05 0)
(0.100163847 1.88615363e-05 0)
(0.100158082 2.58789259e-05 0)
(0.100151926 3.21529938e-05 0)
(0.100145424 3.77370659e-05 0)
(0.100138636 4.26819847e-05 0)
(0.10013163 4.70428248e-05 0)
(0.100124459 5.08766744e-05 0)
(0.100117154 5.42354192e-05 0)
(0.100109743 5.71641551e-05 0)
(0.100102253 5.9702224e-05 0)
(0.10009471 6.1882757e-05 0)
(0.100087136 6.37333405e-05 0)