/*--------------------------------*- C++ -*----------------------------------*\
| =========                 |                                                 |
| \\      /  F ield         | OpenFOAM: The Open Source CFD Toolbox           |
|  \\    /   O peration     | Version:  v2012                                 |
|   \\  /    A nd           | Website:  www.openfoam.com                      |
|    \\/     M anipulation  |                                                 |
\*---------------------------------------------------------------------------*/
FoamFile
{
    version     2.0;
    format      ascii;
    class       surfaceScalarField;
    location    "2.19";
    object      phi;
}
// * * * * * * * * * * * * * * * * * * * * * * * * * * * * * * * * * * * * * //

dimensions      [0 3 -1 0 0 0 0];
oriented        oriented;


internalField   nonuniform List<scalar> 
56481
(
6.66611245e-07
1.12363939e-10
6.66481922e-07
2.905943e-10
6.66307532e-07
3.99746845e-10
6.66116974e-07
4.27448646e-10
6.65935394e-07
3.79478452e-10
6.65784339e-07
2.68302981e-10
6.65689038e-07
1.01002112e-10
6.65627932e-07
-1.11893051e-10
6.65619744e-07
-3.56356636e-10
6.65674304e-07
-6.05812922e-10
6.65788441e-07
-8.19523667e-10
6.65945977e-07
-9.54394881e-10
6.6612104e-07
-9.76948142e-10
6.66283616e-07
-8.72925057e-10
6.66406261e-07
-6.50980856e-10
6.66470745e-07
-3.39702577e-10
6.66474166e-07
1.84285542e-11
6.66380446e-07
3.91787457e-10
6.66210131e-07
7.29719669e-10
6.65979017e-07
1.0115316e-09
6.65705062e-07
1.21765178e-09
6.6540673e-07
1.33821945e-09
6.65101847e-07
1.37240765e-09
6.64806985e-07
1.32671635e-09
6.64536815e-07
1.2140777e-09
6.64303335e-07
1.05305555e-09
6.64114459e-07
8.67596163e-10
6.63972063e-07
6.8677383e-10
6.63870089e-07
5.43383201e-10
6.63793643e-07
4.70368585e-10
6.63720121e-07
4.95112795e-10
6.63622686e-07
6.32932995e-10
6.63475005e-07
8.8211526e-10
6.63255894e-07
1.22254224e-09
6.62952952e-07
1.61899033e-09
6.62564285e-07
2.02871909e-09
6.62097788e-07
2.41128669e-09
6.61568157e-07
2.73757003e-09
6.60992602e-07
2.99511247e-09
6.60386621e-07
3.18819578e-09
6.59761074e-07
3.33302497e-09
6.59121251e-07
3.45023525e-09
6.5846779e-07
3.55772905e-09
6.57798697e-07
3.66629037e-09
6.57111487e-07
3.77886408e-09
6.56404664e-07
3.89271706e-09
6.55678279e-07
4.00273605e-09
6.54933726e-07
4.10418288e-09
6.54173205e-07
4.19403299e-09
6.53399209e-07
4.27095714e-09
6.52614247e-07
4.33458175e-09
6.51820798e-07
4.38470702e-09
6.51021389e-07
4.42087152e-09
6.50218689e-07
4.44229876e-09
6.49415561e-07
4.44805803e-09
6.4861506e-07
4.43725204e-09
6.47820393e-07
4.40912832e-09
6.47034889e-07
4.36310871e-09
6.46261954e-07
4.29877296e-09
6.45505048e-07
4.21583658e-09
6.44767654e-07
4.11414011e-09
6.44053246e-07
3.99364985e-09
6.43365263e-07
3.85446158e-09
6.42707066e-07
3.6968056e-09
6.42081913e-07
3.52104711e-09
6.41492933e-07
3.32768905e-09
6.4094312e-07
3.11737483e-09
6.40435333e-07
2.89088227e-09
6.39972317e-07
2.64912409e-09
6.39556728e-07
2.39313632e-09
6.39191158e-07
2.12405458e-09
6.38878161e-07
1.84309164e-09
6.38620305e-07
1.55149008e-09
6.38420225e-07
1.25043505e-09
6.38280086e-07
9.40892593e-10
6.38201316e-07
6.23763632e-10
6.38182785e-07
3.01374747e-10
6.38217947e-07
-2.40900578e-11
6.38324991e-07
-3.5092544e-10
6.38497994e-07
-6.76979926e-10
6.38736592e-07
-1.00263505e-09
6.39040026e-07
-1.32569176e-09
6.39407351e-07
-1.64427862e-09
6.39837227e-07
-1.95656887e-09
6.40327804e-07
-2.26058169e-09
6.40876722e-07
-2.55426443e-09
6.41481137e-07
-2.8355416e-09
6.42137744e-07
-3.10232892e-09
6.42842816e-07
-3.3525573e-09
6.43592264e-07
-3.58423497e-09
6.44381687e-07
-3.79550921e-09
6.45206423e-07
-3.98473406e-09
6.4606158e-07
-4.15052021e-09
6.46942083e-07
-4.2917838e-09
6.47842719e-07
-4.40777394e-09
6.48758194e-07
-4.49807826e-09
6.49683201e-07
-4.56263036e-09
6.50612493e-07
-4.601702e-09
6.51540956e-07
-4.61588076e-09
6.52463678e-07
-4.60605532e-09
6.53376013e-07
-4.57338765e-09
6.54273626e-07
-4.5192725e-09
6.55152545e-07
-4.44530748e-09
6.56009182e-07
-4.35324734e-09
6.56840364e-07
-4.24496593e-09
6.5764334e-07
-4.12240544e-09
6.58415786e-07
-3.9875465e-09
6.59155804e-07
-3.84235912e-09
6.59861904e-07
-3.68877642e-09
6.60532991e-07
-3.52866085e-09
6.61168343e-07
-3.36378333e-09
6.61767579e-07
-3.19579752e-09
6.62330635e-07
-3.02623059e-09
6.6285773e-07
-2.85647234e-09
6.63349332e-07
-2.68776443e-09
6.63806128e-07
-2.52120302e-09
6.64228991e-07
-2.35773919e-09
6.64618942e-07
-2.19817809e-09
6.64977111e-07
-2.0431856e-09
6.65304729e-07
-1.89328436e-09
6.65603169e-07
-1.74885395e-09
6.65873897e-07
-1.61017593e-09
6.66118422e-07
-1.47745306e-09
6.66338268e-07
-1.35082095e-09
6.66534962e-07
-1.23035319e-09
6.66710008e-07
-1.11607163e-09
6.66864881e-07
-1.00795377e-09
6.6700101e-07
-9.05938262e-10
6.67119765e-07
-8.09932491e-10
6.67222446e-07
-7.19816685e-10
6.67310271e-07
-6.35445001e-10
6.67384371e-07
-5.56645198e-10
6.67445783e-07
-4.83214224e-10
6.67495469e-07
-4.14936354e-10
6.67534337e-07
-3.5156969e-10
6.67563249e-07
-2.92839267e-10
6.67583046e-07
-2.38446937e-10
6.67594585e-07
-1.88087257e-10
6.67598783e-07
-1.41470821e-10
6.67596683e-07
-9.83590043e-11
6.67589525e-07
-5.86249616e-11
6.67579015e-07
-2.24876918e-11
6.67567526e-07
1.01970392e-11
6.67548321e-07
4.03462273e-11
6.67523675e-07
6.62691837e-11
6.6749473e-07
8.95655356e-11
6.67462436e-07
1.10801479e-10
6.67427598e-07
1.3020993e-10
6.67390836e-07
1.47898894e-10
6.67352595e-07
1.63946632e-10
6.67313191e-07
1.78410506e-10
6.67272844e-07
1.91327122e-10
6.67231708e-07
2.0273743e-10
6.67189901e-07
2.12700088e-10
6.67147524e-07
2.21289803e-10
6.6710468e-07
2.28593081e-10
6.67061475e-07
2.34704601e-10
6.6701802e-07
2.39722765e-10
6.66974433e-07
2.43744928e-10
6.66930828e-07
2.46864174e-10
6.66887321e-07
2.49166705e-10
6.6684402e-07
2.50730981e-10
6.66801026e-07
2.51626521e-10
6.66758428e-07
2.51914491e-10
6.66716307e-07
2.51647832e-10
6.66674731e-07
2.50872889e-10
6.66633758e-07
2.49630423e-10
6.66593435e-07
2.47957142e-10
6.66553802e-07
2.45886452e-10
6.66514887e-07
2.43449811e-10
6.66476718e-07
2.4067744e-10
6.66439314e-07
2.37598381e-10
6.66402694e-07
2.34241062e-10
6.66366872e-07
2.30633254e-10
6.66331865e-07
2.26801465e-10
6.66297685e-07
2.22770908e-10
6.66264348e-07
2.18565233e-10
6.66231868e-07
2.14205989e-10
6.66200258e-07
2.09712806e-10
6.66169532e-07
2.05103068e-10
6.66139702e-07
2.00392163e-10
6.66110779e-07
1.95593126e-10
6.66082776e-07
1.90717232e-10
6.66055704e-07
1.85772907e-10
6.66029576e-07
1.80769331e-10
6.66004409e-07
1.75697441e-10
6.65980227e-07
1.70605507e-10
6.65957083e-07
1.65257954e-10
6.65935012e-07
1.60586612e-10
1.52052231e-10
6.66623159e-07
1.55804945e-10
6.6649472e-07
4.19033063e-10
6.66310067e-07
5.84399971e-10
6.66099942e-07
6.37573747e-10
6.65891876e-07
5.87544285e-10
6.65708704e-07
4.51475512e-10
6.65567441e-07
2.4226468e-10
6.65488828e-07
-3.32798997e-11
6.65487048e-07
-3.54576985e-10
6.65566863e-07
-6.85627921e-10
6.65723802e-07
-9.76462899e-10
6.65939831e-07
-1.1704239e-09
6.66184884e-07
-1.22200055e-09
6.66422109e-07
-1.11015041e-09
6.6661469e-07
-8.43561673e-10
6.66731882e-07
-4.56894484e-10
6.6674748e-07
2.83090533e-12
6.66665241e-07
4.74026048e-10
6.66483847e-07
9.11113814e-10
6.66221479e-07
1.27389976e-09
6.6590197e-07
1.53716052e-09
6.65551249e-07
1.68894054e-09
6.6519467e-07
1.72898641e-09
6.64855187e-07
1.66619905e-09
6.64552639e-07
1.51662656e-09
6.64302705e-07
1.3029889e-09
6.64115441e-07
1.05486005e-09
6.63993348e-07
8.08867383e-10
6.63929507e-07
6.07224284e-10
6.639067e-07
4.93175458e-10
6.63898291e-07
5.03521897e-10
6.63871123e-07
6.60100787e-10
6.63790529e-07
9.62709128e-10
6.63626694e-07
1.3863772e-09
6.63360486e-07
1.88519825e-09
6.62986903e-07
2.40230226e-09
6.62515e-07
2.88318977e-09
6.61964297e-07
3.28827319e-09
6.61358847e-07
3.60056242e-09
6.60720933e-07
3.82610907e-09
6.60066395e-07
3.98756364e-09
6.59402812e-07
4.11381838e-09
6.58730589e-07
4.2299518e-09
6.58045886e-07
4.35099358e-09
6.57343891e-07
4.48085898e-09
6.56621199e-07
4.61540861e-09
6.55876767e-07
4.74716789e-09
6.55111659e-07
4.86929155e-09
6.54328199e-07
4.97749274e-09
6.53529151e-07
5.07000502e-09
6.52717244e-07
5.14648917e-09
6.51895076e-07
5.20687429e-09
6.51065243e-07
5.25070526e-09
6.50230488e-07
5.27705355e-09
6.49393799e-07
5.28474697e-09
6.48558408e-07
5.27264251e-09
6.47727748e-07
5.23978873e-09
6.46905389e-07
5.18546735e-09
6.46094995e-07
5.10916734e-09
6.45300281e-07
5.01055067e-09
6.44524986e-07
4.88943526e-09
6.43772841e-07
4.74579495e-09
6.43047539e-07
4.57976365e-09
6.42352705e-07
4.39163909e-09
6.41691874e-07
4.18187827e-09
6.41068469e-07
3.9510942e-09
6.40485791e-07
3.70005265e-09
6.39947013e-07
3.42966053e-09
6.39455172e-07
3.14096472e-09
6.3901317e-07
2.83513816e-09
6.38623769e-07
2.51345585e-09
6.38289585e-07
2.17727558e-09
6.38013068e-07
1.82800733e-09
6.37796396e-07
1.46710658e-09
6.37641252e-07
1.09603663e-09
6.37548859e-07
7.16156562e-10
6.37521561e-07
3.28672933e-10
6.3756142e-07
-6.39494044e-11
6.37668798e-07
-4.5830358e-10
6.37845093e-07
-8.5327409e-10
6.38089954e-07
-1.24749657e-09
6.38403179e-07
-1.63891668e-09
6.38784049e-07
-2.02514858e-09
6.39231297e-07
-2.4038168e-09
6.39743157e-07
-2.77244217e-09
6.40317327e-07
-3.12843359e-09
6.40950941e-07
-3.46915594e-09
6.41640599e-07
-3.79198712e-09
6.42382398e-07
-4.09435606e-09
6.43171975e-07
-4.37381235e-09
6.44004558e-07
-4.62809241e-09
6.44875016e-07
-4.85519144e-09
6.45777911e-07
-5.05341586e-09
6.46707568e-07
-5.22144019e-09
6.47658138e-07
-5.35834392e-09
6.48623684e-07
-5.46362478e-09
6.49598268e-07
-5.53721413e-09
6.50576038e-07
-5.57947149e-09
6.51551315e-07
-5.59115829e-09
6.52518678e-07
-5.57341821e-09
6.5347303e-07
-5.52773989e-09
6.54409661e-07
-5.45590339e-09
6.55324293e-07
-5.35993943e-09
6.56213116e-07
-5.2420698e-09
6.57072807e-07
-5.10465766e-09
6.57900545e-07
-4.95014319e-09
6.58694004e-07
-4.781005e-09
6.59451344e-07
-4.59969926e-09
6.60171194e-07
-4.4086266e-09
6.60852624e-07
-4.21009056e-09
6.61495112e-07
-4.00627184e-09
6.62098512e-07
-3.79919744e-09
6.62663011e-07
-3.59072996e-09
6.63189095e-07
-3.38255543e-09
6.63677502e-07
-3.17617174e-09
6.64129192e-07
-2.97289291e-09
6.64545303e-07
-2.77385065e-09
6.6492712e-07
-2.57999504e-09
6.65276041e-07
-2.39210599e-09
6.65593557e-07
-2.21080084e-09
6.65881246e-07
-2.03654321e-09
6.66140739e-07
-1.86966912e-09
6.66373691e-07
-1.71040501e-09
6.66581756e-07
-1.55888535e-09
6.66766565e-07
-1.41516221e-09
6.66929713e-07
-1.27921929e-09
6.67072741e-07
-1.15098265e-09
6.67197133e-07
-1.03032962e-09
6.673043e-07
-9.17100098e-10
6.67395587e-07
-8.11102888e-10
6.6747226e-07
-7.12118284e-10
6.67535516e-07
-6.19901502e-10
6.67586486e-07
-5.34184422e-10
6.6762623e-07
-4.54680053e-10
6.67655743e-07
-3.81082966e-10
6.67675975e-07
-3.13071179e-10
6.67687842e-07
-2.50313522e-10
6.67692236e-07
-1.92481353e-10
6.67690029e-07
-1.39263668e-10
6.6768207e-07
-9.04003357e-11
6.67669229e-07
-4.578351e-11
6.67651124e-07
-4.3831831e-12
6.67628571e-07
3.27507268e-11
6.67602993e-07
6.59236757e-11
6.67573699e-07
9.55636725e-11
6.67541131e-07
1.22133557e-10
6.67505749e-07
1.46182972e-10
6.67467931e-07
1.68027814e-10
6.6742806e-07
1.87770472e-10
6.67386534e-07
2.0547211e-10
6.6734372e-07
2.21224638e-10
6.67299924e-07
2.35122829e-10
6.67255401e-07
2.47260962e-10
6.67210356e-07
2.57745254e-10
6.67164955e-07
2.66690541e-10
6.67119336e-07
2.74212328e-10
6.67073616e-07
2.80424114e-10
6.67027902e-07
2.85436474e-10
6.66982292e-07
2.89354916e-10
6.66936878e-07
2.92278339e-10
6.66891747e-07
2.94297988e-10
6.6684698e-07
2.95497956e-10
6.66802653e-07
2.95953393e-10
6.66758836e-07
2.95731746e-10
6.66715591e-07
2.94892836e-10
6.66672974e-07
2.93490199e-10
6.66631032e-07
2.91571681e-10
6.66589809e-07
2.8918077e-10
6.66549338e-07
2.86357077e-10
6.6650965e-07
2.83137643e-10
6.6647077e-07
2.79557551e-10
6.66432719e-07
2.75649875e-10
6.66395513e-07
2.71446301e-10
6.6635917e-07
2.66977197e-10
6.663237e-07
2.62271419e-10
6.66289115e-07
2.57355899e-10
6.66255424e-07
2.52255609e-10
6.66222637e-07
2.46993072e-10
6.66190761e-07
2.4158858e-10
6.66159804e-07
2.36059967e-10
6.66129774e-07
2.30422972e-10
6.66100676e-07
2.24690764e-10
6.66072519e-07
2.18874534e-10
6.6604531e-07
2.12982101e-10
6.66019057e-07
2.07022268e-10
6.65993769e-07
2.00985012e-10
6.65969449e-07
1.94925305e-10
6.65946101e-07
1.88605808e-10
6.6592357e-07
1.83117552e-10
1.73483019e-10
6.6661774e-07
2.04765224e-10
6.66489516e-07
5.47256279e-10
6.66308061e-07
7.65855221e-10
6.66103143e-07
8.42492306e-10
6.65901139e-07
7.89548123e-10
6.65724e-07
6.28613887e-10
6.655905e-07
3.75765138e-10
6.65513979e-07
4.32406234e-11
6.65511314e-07
-3.51911078e-10
6.6558782e-07
-7.62134225e-10
6.65738654e-07
-1.1272975e-09
6.65946027e-07
-1.37779686e-09
6.6618085e-07
-1.45682349e-09
6.66407589e-07
-1.33688945e-09
6.66590662e-07
-1.02663417e-09
6.66700487e-07
-5.6671976e-10
6.66719795e-07
-1.64772396e-11
6.66644845e-07
5.48976822e-10
6.66479678e-07
1.07628031e-09
6.66238729e-07
1.51484921e-09
6.65941811e-07
1.83407773e-09
6.6561191e-07
2.01884141e-09
6.65272619e-07
2.06827772e-09
6.649461e-07
1.99271779e-09
6.64651833e-07
1.81089375e-09
6.64405681e-07
1.54914116e-09
6.64218417e-07
1.24212358e-09
6.64093702e-07
9.33582802e-10
6.64025992e-07
6.74933863e-10
6.63999233e-07
5.19934723e-10
6.63987431e-07
5.15324356e-10
6.63958053e-07
6.89478066e-10
6.63877565e-07
1.04319715e-09
6.63717327e-07
1.54661559e-09
6.63458647e-07
2.14387868e-09
6.63095816e-07
2.76513236e-09
6.62636191e-07
3.34281537e-09
6.62097145e-07
3.82731869e-09
6.61500809e-07
4.19689882e-09
6.60868266e-07
4.45865224e-09
6.60215064e-07
4.6407658e-09
6.59549253e-07
4.77962858e-09
6.58872111e-07
4.90709445e-09
6.58180676e-07
5.04242838e-09
6.57470757e-07
5.19077738e-09
6.5673922e-07
5.34694594e-09
6.55985007e-07
5.5013814e-09
6.55209026e-07
5.64527219e-09
6.54413443e-07
5.77307528e-09
6.53600934e-07
5.88251477e-09
6.52774226e-07
5.97319653e-09
6.5193599e-07
6.04511068e-09
6.51088924e-07
6.09777134e-09
6.50235895e-07
6.13008252e-09
6.49380019e-07
6.14062326e-09
6.48524665e-07
6.12799645e-09
6.47673414e-07
6.09103982e-09
6.4683e-07
6.02888132e-09
6.4599826e-07
5.94090654e-09
6.45182097e-07
5.82671432e-09
6.44385438e-07
5.68609437e-09
6.43612205e-07
5.5190272e-09
6.42866279e-07
5.32568986e-09
6.42151458e-07
5.10646054e-09
6.41471424e-07
4.86191152e-09
6.40829719e-07
4.5927997e-09
6.40229719e-07
4.30005263e-09
6.39674638e-07
3.98474148e-09
6.39167535e-07
3.64806785e-09
6.3871133e-07
3.29134345e-09
6.38308817e-07
2.91596872e-09
6.37962668e-07
2.52342448e-09
6.37675413e-07
2.11526231e-09
6.37449423e-07
1.69309687e-09
6.37286875e-07
1.25858437e-09
6.37189508e-07
8.13523437e-10
6.37157967e-07
3.60214116e-10
6.37193546e-07
-9.9528354e-11
6.37298609e-07
-5.6336685e-10
6.37474323e-07
-1.0289884e-09
6.37720951e-07
-1.49412396e-09
6.38038243e-07
-1.95620855e-09
6.38425575e-07
-2.41248117e-09
6.388818e-07
-2.86004198e-09
6.39405209e-07
-3.29585104e-09
6.3999353e-07
-3.71675439e-09
6.40643915e-07
-4.11954142e-09
6.41352944e-07
-4.50101543e-09
6.42116633e-07
-4.85804556e-09
6.42930471e-07
-5.1876499e-09
6.43789452e-07
-5.48707363e-09
6.44688136e-07
-5.75387524e-09
6.45620711e-07
-5.9859908e-09
6.46581076e-07
-6.18180509e-09
6.47562931e-07
-6.34019966e-09
6.48559879e-07
-6.46057257e-09
6.49565524e-07
-6.54285923e-09
6.50573579e-07
-6.58752667e-09
6.51577962e-07
-6.59554114e-09
6.52572886e-07
-6.56834192e-09
6.53552939e-07
-6.50779286e-09
6.5451315e-07
-6.41611399e-09
6.55449038e-07
-6.29582792e-09
6.56356652e-07
-6.14968404e-09
6.57232589e-07
-5.98059477e-09
6.58074002e-07
-5.79155538e-09
6.58878592e-07
-5.58559491e-09
6.59644594e-07
-5.36570182e-09
6.60370751e-07
-5.13478326e-09
6.61056275e-07
-4.89561529e-09
6.61700816e-07
-4.6508125e-09
6.62304411e-07
-4.40279234e-09
6.62867445e-07
-4.15376363e-09
6.63390603e-07
-3.90571376e-09
6.63874828e-07
-3.66039684e-09
6.64321276e-07
-3.41934052e-09
6.64731275e-07
-3.18384993e-09
6.65106291e-07
-2.95501113e-09
6.65447893e-07
-2.733708e-09
6.65757728e-07
-2.52063543e-09
6.66037496e-07
-2.31631187e-09
6.66288931e-07
-2.12110419e-09
6.66513772e-07
-1.93524555e-09
6.66713743e-07
-1.75885662e-09
6.66890541e-07
-1.59195941e-09
6.67045817e-07
-1.43449565e-09
6.67181174e-07
-1.28633937e-09
6.67298149e-07
-1.14730547e-09
6.6739821e-07
-1.01716075e-09
6.67482739e-07
-8.95631547e-10
6.67553031e-07
-7.82410138e-10
6.67610293e-07
-6.77163965e-10
6.67655651e-07
-5.79541905e-10
6.6769015e-07
-4.89179021e-10
6.67714768e-07
-4.05701544e-10
6.67730428e-07
-3.2873083e-10
6.67738003e-07
-2.57889116e-10
6.6773833e-07
-1.92808256e-10
6.677322e-07
-1.33132893e-10
6.6772029e-07
-7.84909906e-11
6.67702872e-07
-2.83654126e-11
6.67680995e-07
1.74941719e-11
6.67655609e-07
5.81364092e-11
6.67626435e-07
9.50978154e-11
6.67593704e-07
1.28294347e-10
6.6755782e-07
1.58017746e-10
6.67519424e-07
1.84578994e-10
6.6747914e-07
2.08312127e-10
6.67437404e-07
2.29506448e-10
6.673945e-07
2.48375874e-10
6.67350646e-07
2.65078384e-10
6.67306023e-07
2.79745639e-10
6.67260782e-07
2.92502252e-10
6.67215057e-07
3.03470412e-10
6.67168977e-07
3.12770415e-10
6.67122668e-07
3.20521895e-10
6.67076249e-07
3.26843081e-10
6.67029836e-07
3.31849553e-10
6.66983539e-07
3.35651887e-10
6.66937463e-07
3.38353533e-10
6.66891711e-07
3.40050741e-10
6.66846371e-07
3.40837459e-10
6.66801526e-07
3.40798575e-10
6.66757246e-07
3.40011362e-10
6.66713594e-07
3.38545014e-10
6.66670622e-07
3.36462055e-10
6.66628375e-07
3.338189e-10
6.66586889e-07
3.30666991e-10
6.66546193e-07
3.27052911e-10
6.66506311e-07
3.23019547e-10
6.66467262e-07
3.18606627e-10
6.66429061e-07
3.13850689e-10
6.66391722e-07
3.08785946e-10
6.66355254e-07
3.03444501e-10
6.6631967e-07
2.97855939e-10
6.66284978e-07
2.92047729e-10
6.66251188e-07
2.86045282e-10
6.6621831e-07
2.79871609e-10
6.66186351e-07
2.73547772e-10
6.66155318e-07
2.67092465e-10
6.66125219e-07
2.60522235e-10
6.66096059e-07
2.53850911e-10
6.66067843e-07
2.47090283e-10
6.66040576e-07
2.40248842e-10
6.66014263e-07
2.33335874e-10
6.65988906e-07
2.26342091e-10
6.65964512e-07
2.19319029e-10
6.65941104e-07
2.12013719e-10
6.65918709e-07
2.05512759e-10
1.94286987e-10
6.66619334e-07
2.52131194e-10
6.6648858e-07
6.78010688e-10
6.66299422e-07
9.55012436e-10
6.66081858e-07
1.06005677e-09
6.65864749e-07
1.00665672e-09
6.6567329e-07
8.20073046e-10
6.65529505e-07
5.1955069e-10
6.65454677e-07
1.18068306e-10
6.65456349e-07
-3.53582861e-10
6.65547318e-07
-8.53103833e-10
6.65723104e-07
-1.30308274e-09
6.6596446e-07
-1.61915301e-09
6.66238949e-07
-1.73131317e-09
6.66506635e-07
-1.60457479e-09
6.66727562e-07
-1.24756114e-09
6.66868831e-07
-7.07989336e-10
6.66912739e-07
-6.03850247e-11
6.66842492e-07
6.19223983e-10
6.66669099e-07
1.24967306e-09
6.66409061e-07
1.77488776e-09
6.66086784e-07
2.15635392e-09
6.65729377e-07
2.37624915e-09
6.65364078e-07
2.43357641e-09
6.65016591e-07
2.34020496e-09
6.64709512e-07
2.11797248e-09
6.64460829e-07
1.79782446e-09
6.64282147e-07
1.42080485e-09
6.64176622e-07
1.03910858e-09
6.64137071e-07
7.14484071e-10
6.64145206e-07
5.11799895e-10
6.64172747e-07
4.87783852e-10
6.64184439e-07
6.77785651e-10
6.64142979e-07
1.08465743e-09
6.64015648e-07
1.67394623e-09
6.63780649e-07
2.37887805e-09
6.6343097e-07
3.11481173e-09
6.62974553e-07
3.79923208e-09
6.62430761e-07
4.37111046e-09
6.61824341e-07
4.80331889e-09
6.61178872e-07
5.10412112e-09
6.60511743e-07
5.3078953e-09
6.59831971e-07
5.45939975e-09
6.59141003e-07
5.59806298e-09
6.58435504e-07
5.74792733e-09
6.57710676e-07
5.91560557e-09
6.56962792e-07
6.09482994e-09
6.56190358e-07
6.2738148e-09
6.55394034e-07
6.44159677e-09
6.54575881e-07
6.59122796e-09
6.53738565e-07
6.7198307e-09
6.52884855e-07
6.82690686e-09
6.52017488e-07
6.91247776e-09
6.51139261e-07
6.97599809e-09
6.50253174e-07
7.01616984e-09
6.49362512e-07
7.03128481e-09
6.48470854e-07
7.01965483e-09
6.47582017e-07
6.97987613e-09
6.46699998e-07
6.91090116e-09
6.45828904e-07
6.81200011e-09
6.44972913e-07
6.68270564e-09
6.44136223e-07
6.5227837e-09
6.4332302e-07
6.33223042e-09
6.42537435e-07
6.11127483e-09
6.41783518e-07
5.86037802e-09
6.41065212e-07
5.58021754e-09
6.4038634e-07
5.27167089e-09
6.39750594e-07
4.9357994e-09
6.39161512e-07
4.57382308e-09
6.38622467e-07
4.18711291e-09
6.3813664e-07
3.77717049e-09
6.37707009e-07
3.34559918e-09
6.37336345e-07
2.89408857e-09
6.37027212e-07
2.42439576e-09
6.36781972e-07
1.93833654e-09
6.36602755e-07
1.43780195e-09
6.36491512e-07
9.24765863e-10
6.36450419e-07
4.01307073e-10
6.36481035e-07
-1.30143736e-10
6.36584659e-07
-6.66991519e-10
6.36762219e-07
-1.20654844e-09
6.37014267e-07
-1.74617174e-09
6.37340968e-07
-2.28290903e-09
6.37741991e-07
-2.81350408e-09
6.38216434e-07
-3.33448553e-09
6.38762779e-07
-3.84219605e-09
6.39378851e-07
-4.33282673e-09
6.40061787e-07
-4.80247741e-09
6.40808023e-07
-5.24725071e-09
6.41613306e-07
-5.66332849e-09
6.42472733e-07
-6.04707711e-09
6.43380803e-07
-6.39514362e-09
6.44331488e-07
-6.70456033e-09
6.4531832e-07
-6.97282279e-09
6.4633449e-07
-7.1979752e-09
6.4737296e-07
-7.3786697e-09
6.4842658e-07
-7.51419294e-09
6.49488214e-07
-7.60449318e-09
6.50550862e-07
-7.65017433e-09
6.51607777e-07
-7.65245629e-09
6.52652575e-07
-7.61313993e-09
6.53679326e-07
-7.53454403e-09
6.54682631e-07
-7.41941814e-09
6.55657674e-07
-7.27087184e-09
6.56600269e-07
-7.0922789e-09
6.5750687e-07
-6.88719588e-09
6.58374578e-07
-6.65926309e-09
6.59201126e-07
-6.4121425e-09
6.59984852e-07
-6.14942821e-09
6.60724666e-07
-5.87459685e-09
6.61419999e-07
-5.590949e-09
6.62070761e-07
-5.30157397e-09
6.62677278e-07
-5.00930962e-09
6.63240245e-07
-4.7167307e-09
6.63760668e-07
-4.42613631e-09
6.6423981e-07
-4.1395392e-09
6.64679146e-07
-3.85867654e-09
6.65080314e-07
-3.58501764e-09
6.65445074e-07
-3.31977127e-09
6.65775274e-07
-3.06390819e-09
6.66072818e-07
-2.8181793e-09
6.66339639e-07
-2.58313224e-09
6.66577674e-07
-2.35913927e-09
6.66788845e-07
-2.14641674e-09
6.66975037e-07
-1.9450485e-09
6.67138078e-07
-1.75500118e-09
6.67279728e-07
-1.57614498e-09
6.67401658e-07
-1.40827006e-09
6.67505454e-07
-1.25110101e-09
6.67592608e-07
-1.10431483e-09
6.67664529e-07
-9.67552622e-10
6.67722545e-07
-8.40426148e-10
6.67767906e-07
-7.22524999e-10
6.67801785e-07
-6.13420647e-10
6.67825276e-07
-5.12670227e-10
6.67839398e-07
-4.19822907e-10
6.67845092e-07
-3.34424947e-10
6.67843227e-07
-2.56024416e-10
6.67834598e-07
-1.84179279e-10
6.67819949e-07
-1.18483641e-10
6.67800144e-07
-5.86860517e-11
6.67776828e-07
-5.04922709e-12
6.67749491e-07
4.48306509e-11
6.67717973e-07
8.96542335e-11
6.67683266e-07
1.29805419e-10
6.67645768e-07
1.65791776e-10
6.676058e-07
1.97986349e-10
6.67563611e-07
2.26767335e-10
6.67519479e-07
2.52444945e-10
6.67473744e-07
2.75240658e-10
6.67426778e-07
2.95341883e-10
6.67378919e-07
3.12938063e-10
6.67330449e-07
3.28215353e-10
6.67281603e-07
3.41348083e-10
6.6723257e-07
3.52503178e-10
6.67183499e-07
3.61841861e-10
6.67134506e-07
3.69514427e-10
6.67085695e-07
3.75654188e-10
6.67037158e-07
3.80387222e-10
6.66988976e-07
3.83833264e-10
6.66941225e-07
3.86105243e-10
6.66893967e-07
3.87308297e-10
6.66847264e-07
3.87540417e-10
6.66801172e-07
3.86890713e-10
6.66755742e-07
3.85440838e-10
6.66711023e-07
3.83264661e-10
6.66667055e-07
3.80429556e-10
6.66623878e-07
3.76996636e-10
6.66581523e-07
3.73021884e-10
6.66540019e-07
3.68556234e-10
6.66499392e-07
3.63646816e-10
6.66459661e-07
3.58337463e-10
6.66420843e-07
3.52668521e-10
6.66382952e-07
3.46677652e-10
6.66345996e-07
3.4039993e-10
6.66309985e-07
3.33867381e-10
6.66274923e-07
3.27109595e-10
6.66240815e-07
3.20153693e-10
6.66207662e-07
3.13023824e-10
6.66175468e-07
3.05741786e-10
6.66144234e-07
2.98326744e-10
6.66113961e-07
2.90795628e-10
6.66084649e-07
2.83162574e-10
6.660563e-07
2.75439768e-10
6.66028912e-07
2.67636048e-10
6.66002486e-07
2.59761817e-10
6.6597702e-07
2.51808526e-10
6.659525e-07
2.4383882e-10
6.65928913e-07
2.35601141e-10
6.65906064e-07
2.28361868e-10
2.16186149e-10
6.66618729e-07
3.00002399e-10
6.66487289e-07
8.09450007e-10
6.66297886e-07
1.14441555e-09
6.66080572e-07
1.27737136e-09
6.65863586e-07
1.2236422e-09
6.65671481e-07
1.01217848e-09
6.65525851e-07
6.65180808e-10
6.65443856e-07
2.00063335e-10
6.65448895e-07
-3.58621919e-10
6.65543755e-07
-9.47964168e-10
6.65723348e-07
-1.48267543e-09
6.65968347e-07
-1.86415266e-09
6.66246939e-07
-2.00990437e-09
6.66519904e-07
-1.87753973e-09
6.66747784e-07
-1.47544188e-09
6.66897621e-07
-8.57826078e-10
6.6694528e-07
-1.08043745e-10
6.66888925e-07
6.75578714e-10
6.66730105e-07
1.40849288e-09
6.66484897e-07
2.02009599e-09
6.66175893e-07
2.46535822e-09
6.65829564e-07
2.7225775e-09
6.65473192e-07
2.78994835e-09
6.65132628e-07
2.68076926e-09
6.64830756e-07
2.41984494e-09
6.64586134e-07
2.04244622e-09
6.64411317e-07
1.59562179e-09
6.64310702e-07
1.13972328e-09
6.64278319e-07
7.46867114e-10
6.64296464e-07
4.93655077e-10
6.64336267e-07
4.47981145e-10
6.64361257e-07
6.52795669e-10
6.64333475e-07
1.1124386e-09
6.64220009e-07
1.78741242e-09
6.63998698e-07
2.60018888e-09
6.63661752e-07
3.45175783e-09
6.63216113e-07
4.24487114e-09
6.62680282e-07
4.90694187e-09
6.62078536e-07
5.40506509e-09
6.61434424e-07
5.74823312e-09
6.60765611e-07
5.97670825e-09
6.60081491e-07
6.14351956e-09
6.59383805e-07
6.29574874e-09
6.58669356e-07
6.46237612e-09
6.57933335e-07
6.65162706e-09
6.57171924e-07
6.85624043e-09
6.56383535e-07
7.06220381e-09
6.55568771e-07
7.2563615e-09
6.54729693e-07
7.43030538e-09
6.53869018e-07
7.58050627e-09
6.52989601e-07
7.70632331e-09
6.52094302e-07
7.80777719e-09
6.51186067e-07
7.88423241e-09
6.5026808e-07
7.93415668e-09
6.49343844e-07
7.95552156e-09
6.48417182e-07
7.94631642e-09
6.4749219e-07
7.90486803e-09
6.46573162e-07
7.82992953e-09
6.45664526e-07
7.7206356e-09
6.44770796e-07
7.57643599e-09
6.4389652e-07
7.39705986e-09
6.43046238e-07
7.18251215e-09
6.42224434e-07
6.93307849e-09
6.41435485e-07
6.6493273e-09
6.40683609e-07
6.33209366e-09
6.39972823e-07
5.98245655e-09
6.39306916e-07
5.60170669e-09
6.38689443e-07
5.19129621e-09
6.38123747e-07
4.75280888e-09
6.3761299e-07
4.28792774e-09
6.3716018e-07
3.79840909e-09
6.36768186e-07
3.28608256e-09
6.3643973e-07
2.75285166e-09
6.36177364e-07
2.20070203e-09
6.35983452e-07
1.63171394e-09
6.35860134e-07
1.0480846e-09
6.35809257e-07
4.52183715e-10
6.3583268e-07
-1.53566578e-10
6.35932202e-07
-7.6651368e-10
6.3610926e-07
-1.38360664e-09
6.36364747e-07
-2.00165891e-09
6.36699031e-07
-2.61719272e-09
6.37111951e-07
-3.22642418e-09
6.37602758e-07
-3.8252927e-09
6.38170049e-07
-4.40948689e-09
6.38811715e-07
-4.97449251e-09
6.39524897e-07
-5.51565917e-09
6.40305956e-07
-6.02831031e-09
6.41150468e-07
-6.50784023e-09
6.42053237e-07
-6.94984587e-09
6.43008342e-07
-7.35024905e-09
6.44009212e-07
-7.70543015e-09
6.45048721e-07
-8.01233162e-09
6.46119314e-07
-8.26856825e-09
6.47213148e-07
-8.47250427e-09
6.48322245e-07
-8.62328912e-09
6.49438641e-07
-8.72088989e-09
6.50554549e-07
-8.76608211e-09
6.51662492e-07
-8.76039884e-09
6.52755434e-07
-8.70608236e-09
6.53826892e-07
-8.60600198e-09
6.54871017e-07
-8.46354292e-09
6.55882659e-07
-8.28251379e-09
6.56857406e-07
-8.06702558e-09
6.57791598e-07
-7.82138835e-09
6.58682324e-07
-7.54998941e-09
6.59527397e-07
-7.25721549e-09
6.60325315e-07
-6.94734573e-09
6.6107521e-07
-6.62449217e-09
6.61776793e-07
-6.29253179e-09
6.62430286e-07
-5.95506691e-09
6.63036358e-07
-5.61538134e-09
6.63596057e-07
-5.27642988e-09
6.64110748e-07
-4.94082748e-09
6.6458205e-07
-4.61084114e-09
6.65011779e-07
-4.28840588e-09
6.65401899e-07
-3.97513765e-09
6.65754474e-07
-3.67234566e-09
6.66071627e-07
-3.38106159e-09
6.66355511e-07
-3.10206322e-09
6.66608274e-07
-2.83589546e-09
6.66832038e-07
-2.58290284e-09
6.67028874e-07
-2.34325279e-09
6.6720079e-07
-2.11696439e-09
6.67349718e-07
-1.90392952e-09
6.67477513e-07
-1.70393948e-09
6.67585946e-07
-1.51670324e-09
6.67676704e-07
-1.3418592e-09
6.67751378e-07
-1.17898929e-09
6.67811455e-07
-1.02762931e-09
6.67858308e-07
-8.87279302e-10
6.67893201e-07
-7.57418112e-10
6.67917295e-07
-6.3751403e-10
6.67931657e-07
-5.27032306e-10
6.67937277e-07
-4.25442811e-10
6.67935078e-07
-3.32225749e-10
6.67925932e-07
-2.46878655e-10
6.67910676e-07
-1.68923833e-10
6.67890075e-07
-9.78820281e-11
6.67864431e-07
-3.3041876e-11
6.67833072e-07
2.63092751e-11
6.67798932e-07
7.89712001e-11
6.6776179e-07
1.26795963e-10
6.67721826e-07
1.69769691e-10
6.67679387e-07
2.08230802e-10
6.67634846e-07
2.42527085e-10
6.67588625e-07
2.72988585e-10
6.67541121e-07
2.99948146e-10
6.6749263e-07
3.23731855e-10
6.67443357e-07
3.44615387e-10
6.67393477e-07
3.6281814e-10
6.67343162e-07
3.78529912e-10
6.67292574e-07
3.91936008e-10
6.6724186e-07
4.03217708e-10
6.67191157e-07
4.12544858e-10
6.67140595e-07
4.20076285e-10
6.67090288e-07
4.25960873e-10
6.67040336e-07
4.30338857e-10
6.66990829e-07
4.33340838e-10
6.66941846e-07
4.35088585e-10
6.66893459e-07
4.35695073e-10
6.66845734e-07
4.3526545e-10
6.66798728e-07
4.33896349e-10
6.66752492e-07
4.31677071e-10
6.66707068e-07
4.28688871e-10
6.66662491e-07
4.25006299e-10
6.6661879e-07
4.20697257e-10
6.66575988e-07
4.15823925e-10
6.66534102e-07
4.10442519e-10
6.66493144e-07
4.0460444e-10
6.66453125e-07
3.98356755e-10
6.66414052e-07
3.91742052e-10
6.6637593e-07
3.84799514e-10
6.66338764e-07
3.7756527e-10
6.6630256e-07
3.70072082e-10
6.66267319e-07
3.62350138e-10
6.66233046e-07
3.54427131e-10
6.66199742e-07
3.46327788e-10
6.66167409e-07
3.38074573e-10
6.66136048e-07
3.29687368e-10
6.6610566e-07
3.21183872e-10
6.66076244e-07
3.12578974e-10
6.66047798e-07
3.03885664e-10
6.6602032e-07
2.95113733e-10
6.65993808e-07
2.86274332e-10
6.65968256e-07
2.77360104e-10
6.65943666e-07
2.68429067e-10
6.65920053e-07
2.59214248e-10
6.65897466e-07
2.50948522e-10
2.37147529e-10
6.6661788e-07
3.48822208e-10
6.66483465e-07
9.43865017e-10
6.66288792e-07
1.33908885e-09
6.66064711e-07
1.50145195e-09
6.65841061e-07
1.44729224e-09
6.65644238e-07
1.2090015e-09
6.6549746e-07
8.11958851e-10
6.65422714e-07
2.7480956e-10
6.6543199e-07
-3.67897837e-10
6.65536206e-07
-1.05218038e-09
6.65730583e-07
-1.67705211e-09
6.65994894e-07
-2.12846428e-09
6.66295343e-07
-2.31035299e-09
6.66590418e-07
-2.17261474e-09
6.66838421e-07
-1.72344483e-09
6.67004621e-07
-1.02402647e-09
6.67067532e-07
-1.70954352e-10