/*--------------------------------*- C++ -*----------------------------------*\
| =========                 |                                                 |
| \\      /  F ield         | OpenFOAM: The Open Source CFD Toolbox           |
|  \\    /   O peration     | Version:  v2012                                 |
|   \\  /    A nd           | Website:  www.openfoam.com                      |
|    \\/     M anipulation  |                                                 |
\*---------------------------------------------------------------------------*/
FoamFile
{
    version     2.0;
    format      ascii;
    class       volScalarField;
    location    "2.19";
    object      rAU;
}
// * * * * * * * * * * * * * * * * * * * * * * * * * * * * * * * * * * * * * //

dimensions      [0 0 1 0 0 0 0];


internalField   nonuniform List<scalar> 
28416
(
0.000682476963
0.000682489017
0.000682489043
0.000682490876
0.000682494116
0.00068249825
0.000682502768
0.000682502531
0.000682500297
0.000682497369
0.000682494117
0.000682491108
0.000682488935
0.000682488083
0.000682488806
0.000682491091
0.000682493807
0.0006824871
0.000682481933
0.000682478668
0.000682477531
0.000682478532
0.000682481479
0.000682486028
0.000682491716
0.000682497976
0.000682504186
0.000682509692
0.000682513875
0.000682516228
0.000682516457
0.000682514573
0.000682510933
0.00068250622
0.000682501329
0.000682497187
0.000682494553
0.000682493868
0.000682495187
0.00068249824
0.000682502556
0.000682507644
0.000682513121
0.000682518784
0.0006825246
0.000682530643
0.000682537016
0.0006825438
0.000682551031
0.000682558707
0.000682566807
0.000682575305
0.000682584182
0.000682593422
0.000682603012
0.000682612932
0.000682623162
0.000682633672
0.000682644431
0.000682655403
0.00068266655
0.00068267783
0.0006826892
0.000682700616
0.000682712028
0.000682723389
0.000682734651
0.000682745759
0.00068275666
0.0006827673
0.000682777619
0.000682787555
0.000682797053
0.000682806047
0.000682814492
0.000682822363
0.000682829644
0.000682836101
0.000682831926
0.000682826687
0.000682820654
0.000682813864
0.000682806343
0.000682798127
0.000682789255
0.000682779777
0.000682769742
0.000682759216
0.000682748258
0.000682736941
0.000682725333
0.000682713513
0.000682701549
0.000682689513
0.000682677481
0.000682665515
0.00068265368
0.000682642041
0.000682630651
0.00068261956
0.000682608817
0.000682598457
0.000682588516
0.000682579017
0.000682569986
0.000682561432
0.00068255337
0.0006825458
0.000682538722
0.000682532131
0.000682526023
0.000682520382
0.000682515195
0.000682510449
0.000682506123
0.000682502197
0.000682498657
0.000682495478
0.000682492639
0.000682490124
0.000682487911
0.00068248598
0.00068248431
0.000682482886
0.000682481683
0.000682480684
0.000682479874
0.000682479233
0.000682478744
0.000682478396
0.000682478171
0.000682478058
0.000682478047
0.000682478126
0.000682478286
0.000682478524
0.000682478828
0.000682479191
0.000682479613
0.000682480079
0.00068248058
0.000682481099
0.0006824815
0.000682481129
0.000682480866
0.000682480702
0.000682480617
0.000682480596
0.000682480634
0.000682480724
0.00068248086
0.000682481045
0.000682481274
0.000682481542
0.000682481852
0.000682482196
0.000682482571
0.000682482976
0.000682483405
0.000682483854
0.000682484319
0.000682484801
0.000682485291
0.000682485793
0.0006824863
0.000682486813
0.000682487327
0.000682487846
0.000682488364
0.000682488881
0.0006824894
0.000682489915
0.000682490426
0.000682490936
0.00068249144
0.000682491937
0.000682492431
0.000682492917
0.000682493396
0.000682493865
0.000682494328
0.000682494782
0.000682495224
0.00068249566
0.000682496084
0.000682496496
0.0006824969
0.000682497296
0.00068249766
0.000682511993
0.000682466502
0.000682478777
0.000682479019
0.000682480917
0.000682484028
0.000682487875
0.000682492095
0.000682494445
0.000682491488
0.000682487494
0.000682483007
0.00068247877
0.000682475546
0.00068247395
0.000682474318
0.000682476676
0.000682480495
0.000682475803
0.00068247273
0.000682471531
0.000682472222
0.000682474634
0.000682478461
0.000682483317
0.000682488773
0.000682494362
0.000682499605
0.000682504031
0.000682507216
0.000682508847
0.000682508804
0.000682507227
0.000682504541
0.000682501408
0.000682498615
0.000682496907
0.000682496829
0.000682498619
0.000682502188
0.000682507193
0.000682513167
0.000682519671
0.000682526401
0.000682533222
0.000682540148
0.00068254727
0.000682554689
0.000682562477
0.000682570654
0.00068257921
0.000682588115
0.000682597339
0.000682606855
0.000682616641
0.000682626677
0.000682636935
0.000682647387
0.000682657997
0.000682668728
0.000682679538
0.000682690384
0.000682701222
0.000682712006
0.000682722687
0.000682733217
0.000682743547
0.000682753631
0.000682763416
0.000682772852
0.000682781894
0.00068279049
0.000682798591
0.000682806155
0.000682813133
0.000682819488
0.000682825193
0.0006828302
0.000682833312
0.000682828061
0.000682821985
0.000682815083
0.000682807391
0.000682798934
0.000682789752
0.000682779888
0.000682769401
0.000682758343
0.000682746787
0.000682734801
0.000682722463
0.000682709852
0.000682697054
0.000682684147
0.000682671213
0.000682658336
0.000682645588
0.000682633041
0.000682620767
0.000682608823
0.000682597264
0.000682586141
0.00068257549
0.000682565345
0.000682555728
0.000682546662
0.000682538151
0.000682530205
0.000682522818
0.000682515984
0.000682509692
0.00068250393
0.000682498675
0.000682493907
0.000682489608
0.000682485749
0.000682482305
0.000682479256
0.000682476572
0.000682474229
0.000682472205
0.000682470473
0.000682469012
0.000682467798
0.000682466814
0.000682466034
0.000682465439
0.000682465016
0.000682464742
0.000682464602
0.000682464586
0.000682464675
0.000682464857
0.000682465126
0.000682465467
0.00068246587
0.000682466332
0.000682466842
0.000682467391
0.000682467979
0.000682468592
0.000682469223
0.000682469873
0.000682470031
0.000682469936
0.00068246993
0.00068247
0.000682470134
0.000682470323
0.000682470564
0.000682470849
0.000682471172
0.000682471532
0.00068247192
0.000682472333
0.000682472772
0.00068247323
0.000682473703
0.000682474193
0.000682474694
0.000682475205
0.000682475722
0.000682476247
0.000682476773
0.000682477304
0.000682477834
0.000682478364
0.00068247889
0.000682479416
0.000682479937
0.000682480452
0.000682480965
0.00068248147
0.000682481967
0.000682482459
0.000682482943
0.000682483417
0.000682483886
0.000682484344
0.000682484793
0.000682485231
0.000682485662
0.000682486082
0.00068248649
0.00068248689
0.000682487278
0.000682487654
0.000682488022
0.000682488379
0.000682488716
0.000682502989
0.000682465979
0.000682477297
0.000682476862
0.000682478418
0.000682481495
0.000682485571
0.000682490225
0.000682494657
0.000682491194
0.000682486254
0.000682480911
0.00068247607
0.000682472624
0.000682471255
0.000682472281
0.00068247564
0.000682480898
0.000682475138
0.00068247078
0.000682468409
0.000682468153
0.000682469919
0.000682473427
0.000682478283
0.000682484031
0.000682490155
0.00068249611
0.000682501321
0.000682505238
0.000682507407
0.00068250758
0.000682505811
0.0006825025
0.000682498356
0.000682494281
0.000682491184
0.00068248979
0.000682490483
0.000682493253
0.000682497758
0.000682503468
0.000682509847
0.000682516498
0.000682523227
0.000682530024
0.000682536991
0.000682544254
0.00068255191
0.000682559998
0.000682568512
0.000682577425
0.000682586703
0.000682596321
0.000682606257
0.000682616491
0.000682626998
0.000682637749
0.000682648709
0.00068265984
0.000682671098
0.000682682439
0.000682693816
0.000682705179
0.000682716479
0.000682727663
0.000682738678
0.000682749476
0.000682760001
0.000682770202
0.000682780032
0.000682789436
0.000682798363
0.000682806769
0.000682814601
0.000682821813
0.000682828366
0.000682834222
0.000682837272
0.000682831232
0.000682824329
0.000682816578
0.000682808009
0.000682798656
0.000682788563
0.000682777779
0.000682766367
0.000682754389
0.000682741922
0.000682729042
0.000682715835
0.000682702386
0.000682688791
0.000682675135
0.000682661508
0.000682648001
0.000682634694
0.000682621664
0.000682608988
0.000682596724
0.000682584929
0.000682573654
0.000682562933
0.000682552798
0.000682543267
0.000682534357
0.000682526068
0.000682518402
0.000682511347
0.000682504891
0.000682499013
0.000682493696
0.000682488911
0.00068248463
0.00068248083
0.000682477476
0.000682474539
0.000682471993
0.000682469804
0.000682467946
0.000682466393
0.000682465117
0.000682464094
0.000682463297
0.000682462711
0.000682462308
0.000682462069
0.000682461981
0.000682462022
0.000682462175
0.000682462432
0.000682462774
0.000682463191
0.000682463675
0.000682464214
0.0006824648
0.00068246543
0.000682466092
0.000682466781
0.000682467495
0.000682468225
0.00068246897
0.000682469527
0.000682469402
0.000682469304
0.000682469298
0.000682469369
0.00068246951
0.000682469705
0.000682469952
0.000682470239
0.000682470563
0.000682470923
0.000682471312
0.000682471728
0.000682472171
0.000682472634
0.000682473114
0.000682473613
0.000682474123
0.000682474645
0.000682475173
0.00068247571
0.000682476248
0.000682476791
0.000682477334
0.000682477876
0.000682478415
0.000682478953
0.000682479486
0.000682480013
0.000682480538
0.000682481055
0.000682481564
0.000682482069
0.000682482564
0.00068248305
0.000682483531
0.000682484001
0.000682484462
0.000682484912
0.000682485355
0.000682485787
0.000682486207
0.000682486619
0.00068248702
0.000682487408
0.000682487788
0.000682488158
0.000682488505
0.00068250279
0.00068246539
0.000682475735
0.000682474693
0.000682476063
0.000682479331
0.000682483892
0.000682489247
0.000682494982
0.00068249186
0.00068248579
0.000682479249
0.000682473318
0.000682469067
0.000682467307
0.000682468409
0.000682472279
0.000682478405
0.000682471895
0.000682466394
0.000682463212
0.000682462515
0.000682464192
0.00068246792
0.000682473246
0.000682479636
0.000682486495
0.000682493189
0.000682499049
0.000682503418
0.000682505736
0.000682505662
0.000682503199
0.00068249877
0.000682493188
0.000682487525
0.000682482886
0.000682480168
0.000682479866
0.000682482006
0.000682486197
0.000682491814
0.000682498209
0.000682504891
0.000682511612
0.000682518355
0.000682525239
0.000682532426
0.000682540039
0.000682548136
0.000682556719
0.00068256576
0.000682575227
0.000682585091
0.000682595332
0.000682605931
0.000682616865
0.000682628106
0.000682639616
0.000682651355
0.000682663278
0.000682675337
0.000682687481
0.000682699658
0.000682711814
0.000682723892
0.000682735833
0.000682747585
0.000682759086
0.000682770278
0.00068278111
0.000682791521
0.000682801458
0.000682810872
0.000682819709
0.000682827921
0.000682835463
0.000682842282
0.000682845446
0.000682838582
0.000682830802
0.000682822127
0.000682812589
0.000682802224
0.000682791077
0.000682779204
0.000682766672
0.00068275355
0.000682739926
0.000682725883
0.00068271152
0.000682696934
0.000682682231
0.000682667512
0.000682652877
0.000682638428
0.000682624256
0.000682610447
0.000682597084
0.000682584232
0.00068257195
0.000682560293
0.000682549293
0.00068253898
0.00068252937
0.000682520473
0.000682512284
0.000682504799
0.000682497997
0.000682491857
0.000682486352
0.000682481455
0.000682477129
0.000682473339
0.000682470053
0.00068246723
0.000682464835
0.000682462835
0.000682461192
0.000682459874
0.000682458853
0.000682458096
0.000682457576
0.000682457265
0.000682457145
0.000682457187
0.000682457373
0.000682457687
0.000682458108
0.000682458621
0.000682459217
0.000682459879
0.000682460596
0.000682461363
0.000682462166
0.000682462997
0.000682463855
0.000682464729
0.000682465613
0.000682466508
0.000682467403
0.000682468286
0.000682468435
0.000682468273
0.000682468203
0.00068246822
0.000682468311
0.00068246847
0.000682468688
0.000682468964
0.000682469285
0.000682469646
0.000682470046
0.000682470474
0.000682470927
0.000682471405
0.000682471902
0.000682472413
0.00068247294
0.000682473478
0.000682474025
0.000682474577
0.000682475137
0.000682475698
0.000682476263
0.000682476827
0.00068247739
0.000682477949
0.000682478508
0.000682479061
0.000682479608
0.000682480151
0.000682480686
0.000682481213
0.000682481735
0.000682482247
0.000682482749
0.000682483245
0.00068248373
0.000682484206
0.00068248467
0.000682485126
0.000682485571
0.000682486004
0.00068248643
0.000682486843
0.000682487244
0.000682487637
0.000682488021
0.000682488382
0.000682502691
0.000682464819
0.000682474167
0.000682472433
0.000682473467
0.000682476741
0.000682481613
0.000682487553
0.000682494146
0.000682491901
0.000682484705
0.000682477096
0.000682470333
0.000682465638
0.000682463903
0.000682465491
0.000682470222
0.000682477481
0.000682470641
0.000682463728
0.000682459326
0.000682457702
0.000682458798
0.000682462301
0.000682467737
0.000682474532
0.000682482035
0.000682489524
0.000682496218
0.000682501321
0.000682504123
0.000682504155
0.000682501347
0.000682496108
0.00068248932
0.000682482187
0.000682475997
0.000682471838
0.000682470355
0.000682471645
0.000682475311
0.000682480652
0.000682486914
0.000682493513
0.000682500139
0.000682506755
0.000682513496
0.000682520549
0.000682528067
0.000682536124
0.000682544729
0.000682553855
0.000682563467
0.000682573539
0.000682584048
0.000682594979
0.000682606308
0.000682618006
0.000682630036
0.000682642356
0.000682654916
0.000682667665
0.000682680549
0.000682693509
0.000682706486
0.000682719418
0.000682732243
0.000682744902
0.000682757332
0.000682769473
0.000682781271
0.000682792663
0.000682803593
0.000682814009
0.000682823852
0.000682833069
0.000682841611
0.000682849424
0.000682852905
0.000682845207
0.000682836538
0.00068282692
0.000682816387
0.000682804979
0.000682792747
0.000682779751
0.000682766067
0.000682751772
0.000682736962
0.000682721732
0.000682706192
0.000682690451
0.000682674629
0.000682658837
0.000682643192
0.000682627807
0.000682612784
0.000682598219
0.000682584202
0.000682570805
0.000682558091
0.000682546113
0.000682534905
0.000682524493
0.000682514888
0.000682506094
0.000682498098
0.000682490886
0.00068248443
0.0006824787
0.000682473656
0.000682469265
0.000682465478
0.000682462253
0.00068245955
0.00068245732
0.00068245552
0.000682454114
0.000682453058
0.000682452314
0.000682451852
0.000682451634
0.000682451633
0.00068245182
0.000682452172
0.000682452664
0.000682453275
0.000682453989
0.000682454786
0.000682455651
0.000682456573
0.000682457538
0.000682458534
0.000682459557
0.000682460595
0.000682461642
0.000682462697
0.000682463749
0.000682464795
0.000682465834
0.000682466862
0.000682467582
0.000682467428
0.000682467297
0.000682467257
0.000682467303
0.000682467424
0.000682467611
0.000682467855
0.000682468152
0.000682468491
0.00068246887
0.000682469286
0.000682469732
0.000682470204
0.000682470702
0.000682471218
0.000682471751
0.0006824723
0.000682472859
0.000682473426
0.000682473999
0.00068247458
0.00068247516
0.000682475744
0.000682476326
0.000682476907
0.000682477483
0.000682478058
0.000682478627
0.000682479188
0.000682479747
0.000682480296
0.000682480837
0.000682481373
0.000682481899
0.000682482415
0.000682482925
0.000682483423
0.000682483912
0.000682484389
0.000682484859
0.000682485317
0.000682485763
0.000682486201
0.000682486627
0.000682487041
0.000682487446
0.000682487841
0.000682488212
0.000682502529
0.000682464243
0.000682472597
0.000682470203
0.000682470968
0.000682474331
0.000682479587
0.000682486146
0.000682493521
0.000682492014
0.000682483621
0.000682474813
0.000682467031
0.000682461672
0.000682459744
0.000682461639
0.00068246712
0.00068247543
0.000682468475
0.000682460255
0.000682454795
0.000682452436
0.000682453147
0.000682456605
0.000682462298
0.000682469596
0.000682477776
0.000682486033
0.000682493483
0.000682499213
0.00068250238
0.000682502397
0.000682499104
0.000682492901
0.00068248475
0.000682476013
0.000682468176
0.000682462517
0.000682459824
0.000682460261
0.000682463412
0.000682468494
0.000682474647
0.000682481183
0.000682487733
0.000682494239
0.000682500849
0.000682507781
0.000682515216
0.00068252325
0.0006825319
0.000682541141
0.000682550939
0.000682561266
0.000682572102
0.000682583432
0.000682595233
0.000682607477
0.000682620125
0.000682633131
0.000682646443
0.000682660005
0.000682673758
0.000682687639
0.000682701584
0.000682715527
0.000682729398
0.000682743135
0.000682756665
0.000682769923
0.000682782846
0.000682795368
0.000682807429
0.000682818972
0.000682829937
0.000682840267
0.000682849909
0.000682858802
0.000682862866
0.000682854306
0.000682844708
0.000682834096
0.000682822504
0.000682809971
0.000682796552
0.000682782311
0.000682767329
0.000682751693
0.00068273551
0.00068271889
0.000682701955
0.000682684834
0.000682667663
0.000682650572
0.000682633692
0.000682617155
0.000682601076
0.000682585564
0.00068257072
0.000682556621
0.000682543336
0.00068253092
0.000682519406
0.000682508816
0.000682499154
0.000682490419
0.000682482587
0.000682475636
0.000682469525
0.000682464213
0.00068245965
0.00068245579
0.000682452576
0.000682449954
0.000682447874
0.000682446281
0.000682445124
0.000682444359
0.000682443936
0.000682443815
0.000682443959
0.000682444329
0.000682444893
0.000682445621
0.000682446489
0.000682447469
0.00068244854
0.000682449688
0.000682450892
0.000682452137
0.000682453416
0.000682454714
0.000682456022
0.000682457336
0.000682458645
0.000682459943
0.00068246123
0.000682462498
0.000682463744
0.00068246497
0.00068246616
0.00068246627
0.000682466083
0.000682466
0.000682466006
0.000682466097
0.000682466261
0.000682466491
0.000682466778
0.00068246712
0.000682467506
0.000682467928
0.000682468388
0.000682468874
0.000682469385
0.000682469919
0.00068247047
0.000682471035
0.000682471615
0.000682472203
0.000682472798
0.000682473398
0.000682474004
0.000682474609
0.000682475217
0.000682475822
0.000682476426
0.000682477024
0.000682477621
0.000682478211
0.000682478794
0.000682479372
0.000682479941
0.0006824805
0.000682481054
0.000682481597
0.000682482129
0.000682482654
0.000682483167
0.000682483671
0.000682484162
0.000682484646
0.000682485117
0.000682485576
0.000682486027
0.000682486466
0.000682486892
0.00068248731
0.000682487718
0.000682488103
0.000682502445
0.000682463655
0.00068247099
0.000682467899
0.000682468351
0.000682471766
0.000682477391
0.000682484593
0.000682492859
0.000682492037
0.000682482402
0.00068247239
0.000682463636
0.000682457704
0.000682455697
0.000682458012
0.000682464324
0.000682473731
0.000682466915
0.00068245726
0.000682450586
0.000682447329
0.000682447505
0.000682450795
0.000682456662
0.000682464428
0.000682473297
0.000682482374
0.000682490654
0.000682497084
0.00068250068
0.000682500731
0.000682497008
0.000682489903
0.000682480442
0.000682470124
0.000682460623
0.000682453409
0.000682449424
0.00068244891
0.000682451444
0.000682456172
0.000682462125
0.000682468523
0.000682474931
0.00068248127
0.000682487703
0.000682494478
0.000682501801
0.000682509791
0.000682518472
0.000682527824
0.000682537809
0.0006825484
0.000682559579
0.000682571331
0.000682583635
0.000682596462
0.000682609769
0.000682623509
0.000682637625
0.000682652054
0.000682666732
0.000682681588
0.00068269655
0.000682711544
0.000682726493
0.000682741329
0.000682755975
0.000682770362
0.000682784427
0.000682798102
0.000682811321
0.000682824029
0.000682836159
0.000682847651
0.000682858451
0.000682868493
0.000682873475
0.000682864039
0.000682853487
0.000682841841
0.000682829136
0.000682815414
0.000682800731
0.000682785157
0.000682768782
0.000682751701
0.000682734033
0.000682715903
0.000682697452
0.000682678824
0.000682660177
0.000682641661
0.000682623429
0.00068260563
0.000682588399
0.000682571858
0.000682556121
0.000682541274
0.000682527391
0.000682514529
0.000682502719
0.000682491977
0.000682482302
0.000682473681
0.000682466081
0.000682459465
0.00068245378
0.000682448972
0.000682444978
0.000682441738
0.000682439183
0.000682437247
0.000682435872
0.000682434992
0.000682434547
0.000682434487
0.000682434758
0.00068243531
0.000682436107
0.000682437104
0.000682438267
0.000682439566
0.000682440975
0.000682442467
0.000682444021
0.000682445622
0.00068244725
0.000682448891
0.000682450537
0.000682452174
0.000682453794
0.000682455394
0.000682456964
0.000682458501
0.000682460006
0.000682461471
0.000682462895
0.000682464279
0.000682465106
0.000682464875
0.000682464745
0.000682464718
0.000682464778
0.000682464921
0.000682465134
0.00068246541
0.00068246574
0.000682466123
0.000682466547
0.000682467008
0.000682467505
0.000682468028
0.000682468574
0.000682469143
0.000682469727
0.000682470324
0.000682470935
0.000682471554
0.000682472178
0.000682472805
0.000682473438
0.000682474068
0.0006824747
0.000682475328
0.000682475953
0.000682476572
0.000682477188
0.000682477796
0.000682478396
0.000682478991
0.000682479577
0.000682480153
0.000682480722
0.00068248128
0.000682481828
0.000682482368
0.000682482896
0.000682483413
0.000682483919
0.000682484416
0.000682484901
0.000682485373
0.000682485837
0.000682486289
0.000682486728
0.000682487158
0.000682487578
0.000682487972
0.000682502323
0.000682463056
0.000682469358
0.000682465568
0.000682465715
0.000682469198
0.000682475213
0.000682483076
0.000682492223
0.000682491977
0.000682481053
0.000682469778
0.000682459981
0.000682453399
0.000682451243
0.000682453924
0.000682461048
0.000682471591
0.000682465213
0.000682454147
0.000682446285
0.000682442155
0.000682441818
0.00068244496
0.000682451013
0.000682459249
0.0006824688
0.000682478682
0.000682487782
0.000682494913
0.000682498947
0.000682499036
0.000682494856
0.000682486782
0.000682475918
0.000682463921
0.000682452662
0.000682443813
0.000682438469
0.00068243695
0.000682438826
0.000682443165
0.000682448894
0.00068245513
0.000682461374
0.000682467524
0.000682473757
0.000682480349
0.00068248754
0.000682495468
0.000682504171
0.000682513629
0.000682523808
0.000682534681
0.000682546229
0.000682558441
0.000682571297
0.000682584766
0.000682598803
0.000682613355
0.000682628361
0.000682643752
0.000682659456
0.000682675397
0.000682691494
0.000682707666
0.00068272383
0.000682739909
0.00068275582
0.000682771485
0.000682786835
0.000682801794
0.000682816297
0.000682830282
0.000682843683
0.000682856439
0.00068286849
0.000682879766
0.000682886059
0.000682875717
0.000682864174
0.000682851447
0.000682837568
0.000682822575
0.000682806526
0.000682789494
0.000682771575
0.000682752875
0.000682733528
0.000682713678
0.000682693485
0.00068267312
0.000682652764
0.000682632595
0.000682612789
0.000682593523
0.000682574949
0.000682557211
0.000682540436
0.000682524722
0.000682510147
0.00068249677
0.000682484618
0.000682473704
0.000682464015
0.000682455528
0.000682448192
0.000682441959
0.000682436759
0.00068243252
0.000682429164
0.000682426618
0.000682424797
0.000682423623
0.000682423025
0.000682422928
0.000682423264
0.000682423973
0.000682424996
0.00068242628
0.000682427781
0.000682429454
0.000682431262
0.000682433172
0.000682435159
0.000682437193
0.000682439255
0.000682441328
0.000682443395
0.000682445444
0.000682447467
0.000682449454
0.000682451398
0.000682453298
0.000682455145
0.000682456937
0.000682458676
0.000682460356
0.000682461976
0.000682463307
0.000682463389
0.00068246323
0.000682463178
0.000682463225
0.000682463356
0.000682463567
0.000682463846
0.000682464185
0.000682464577
0.000682465018
0.000682465497
0.00068246601
0.000682466556
0.000682467125
0.000682467716
0.000682468326
0.000682468951
0.000682469585
0.000682470232
0.000682470884
0.00068247154
0.000682472198
0.00068247286
0.000682473518
0.000682474177
0.000682474831
0.000682475481
0.000682476125
0.000682476764
0.000682477396
0.000682478018
0.000682478634
0.00068247924
0.000682479834
0.000682480422
0.000682480998
0.000682481562
0.000682482117
0.000682482661
0.000682483193
0.000682483713
0.000682484224
0.000682484722
0.000682485208
0.000682485684
0.000682486148
0.0006824866
0.000682487042
0.000682487475
0.000682487881
0.000682502254
0.000682462445
0.000682467694
0.00068246319
0.000682463023
0.000682466578
0.000682472998
0.000682481551
0.000682491625
0.000682491849
0.000682479589
0.000682467019
0.000682456165
0.000682448944
0.000682446667
0.000682449755
0.000682457729
0.000682469407
0.000682463689
0.000682451143
0.00068244203
0.000682436976
0.000682436089
0.000682439062
0.000682445303
0.00068245403
0.000682464303
0.000682475036
0.00068248499
0.000682492833
0.000682497291
0.000682497393
0.000682492739
0.000682483691
0.000682471418
0.000682457719
0.00068244466
0.000682434112
0.000682427333
0.000682424725
0.000682425859
0.000682429731
0.000682435161
0.000682441167
0.000682447184
0.000682453087
0.000682459066
0.00068246543
0.000682472451
0.000682480289
0.000682488994
0.000682498551
0.000682508925
0.000682520091
0.000682532035
0.000682544743
0.000682558198
0.000682572367
0.000682587204
0.000682602649
0.000682618634
0.000682635083
0.000682651915
0.00068266904
0.00068268637
0.000682703811
0.00068272127
0.000682738662
0.000682755897
0.000682772892
0.000682789575
0.000682805869
0.000682821705
0.000682837024
0.000682851758
0.000682865844
0.000682879222
0.000682891821
0.000682899918
0.000682888664
0.000682876112
0.000682862271
0.000682847167
0.000682830834
0.000682813329
0.000682794728
0.000682775133
0.000682754662
0.000682733464
0.000682711703
0.000682689566
0.00068266725
0.000682644969
0.000682622932
0.000682601347
0.000682580421
0.000682560333
0.000682541251
0.000682523318
0.000682506645
0.000682491317
0.000682477394
0.0006824649
0.000682453836
0.00068244418
0.000682435891
0.000682428903
0.000682423146
0.000682418532
0.000682414971
0.000682412366
0.000682410624
0.000682409645
0.000682409337
0.000682409617
0.000682410395
0.000682411597
0.000682413155
0.000682415001
0.000682417078
0.000682419339
0.000682421735
0.000682424229
0.000682426785
0.000682429379
0.000682431982
0.000682434575
0.000682437145
0.000682439673
0.000682442149
0.000682444567
0.000682446917
0.000682449193
0.000682451396
0.000682453519
0.000682455562
0.000682457529
0.000682459415
0.000682461223
0.000682461764
0.000682461579
0.000682461511
0.000682461546
0.000682461677
0.000682461887
0.000682462173
0.000682462523
0.000682462929
0.000682463383
0.000682463884
0.000682464421
0.000682464989
0.000682465587
0.000682466207
0.000682466844
0.0006824675
0.000682468168
0.000682468843
0.000682469528
0.000682470217
0.000682470908
0.000682471599
0.000682472292
0.00068247298
0.000682473666
0.000682474347
0.000682475022
0.000682475688
0.00068247635
0.000682477002
0.000682477643
0.000682478279
0.000682478903
0.000682479515
0.00068248012
0.000682480713
0.000682481293
0.000682481864
0.000682482423
0.000682482971
0.000682483505
0.00068248403
0.000682484542
0.000682485041
0.000682485531
0.000682486008
0.000682486472
0.000682486926
0.000682487371
0.000682487787
0.000682502171
0.000682461819
0.000682465995
0.000682460764
0.000682460281
0.000682463915
0.000682470761
0.000682480034
0.000682491072
0.000682491645
0.000682478003
0.000682464092
0.000682452144
0.00068244425
0.000682441828
0.000682445305
0.000682454121
0.000682466958
0.000682462218
0.000682448185
0.00068243781
0.000682431817
0.000682430368
0.000682433166
0.000682439592
0.000682448809
0.000682459799
0.00068247138
0.000682482191
0.000682490764
0.000682495668
0.000682494417
0.000682490655
0.000682480583
0.000682466831
0.000682451349
0.000682436405
0.000682424075
0.000682415779
0.000682412008
0.00068241233
0.000682415672
0.000682420748
0.000682426472
0.00068243221
0.000682437816
0.000682443491
0.000682449579
0.000682456385
0.000682464095
0.000682472773
0.00068248241
0.000682492973
0.000682504439
0.000682516797
0.000682530035
0.000682544137
0.000682559068
0.000682574778
0.000682591201
0.000682608261
0.000682625871
0.00068264394
0.000682662368
0.000682681053
0.000682699892
0.000682718781
0.000682737623
0.000682756319
0.00068277478
0.000682792926
0.000682810676
0.000682827961
0.00068284472
0.000682860886
0.000682876401
0.000682891204
0.000682905226
0.000682915726
0.00068290355
0.000682889964
0.000682874968
0.000682858578
0.000682840821
0.000682821748
0.000682801435
0.00068277999
0.000682757542
0.000682734259
0.000682710331
0.000682685974
0.000682661421
0.000682636926
0.000682612736
0.000682589102
0.000682566264
0.000682544438
0.000682523818
0.00068250457
0.000682486819
0.000682470657
0.000682456144
0.000682443297
0.000682432107
0.000682422533
0.000682414515
0.000682407965
0.000682402791
0.000682398878
0.000682396115
0.000682394381
0.000682393564
0.000682393546
0.000682394218
0.000682395481
0.000682397235
0.000682399394
0.000682401883
0.000682404628
0.000682407566
0.000682410647
0.00068241382
0.000682417047
0.000682420291
0.000682423528
0.00068242673
0.000682429877
0.000682432959
0.000682435958
0.000682438867
0.000682441683
0.000682444397
0.000682447006
0.000682449515
0.000682451918
0.000682454216
0.000682456414
0.000682458512
0.000682459743
0.000682459632
0.000682459564
0.000682459608
0.000682459748
0.000682459979
0.000682460284
0.000682460661
0.000682461095
0.000682461583
0.000682462114
0.000682462686
0.000682463291
0.000682463922
0.000682464579
0.000682465255
0.000682465945
0.000682466651
0.000682467365
0.000682468084
0.000682468811
0.000682469539
0.000682470267
0.000682470993
0.000682471719
0.000682472438
0.000682473155
0.000682473865
0.000682474567
0.00068247526
0.000682475946
0.000682476623
0.000682477287
0.000682477944
0.000682478589
0.000682479222
0.000682479845
0.000682480455
0.000682481052
0.00068248164
0.000682482214
0.000682482777
0.000682483325
0.000682483864
0.00068248439
0.000682484902
0.000682485404
0.000682485893
0.000682486369
0.000682486836
0.000682487292
0.00068248772
0.000682502123
0.000682461177
0.000682464259
0.000682458286
0.000682457483
0.000682461205
0.000682468499
0.000682478525
0.000682490565
0.000682491363
0.00068247629
0.000682460999
0.00068244793
0.000682439351
0.000682436784
0.000682440664
0.000682450344
0.000682464356
0.000682460857
0.000682445294
0.00068243362
0.000682426661
0.000682424634
0.000682427252
0.000682433872
0.000682443604
0.000682455351
0.000682467822
0.000682479526
0.000682488839
0.000682492925
0.000682489152
0.000682488269
0.000682477521
0.000682462252
0.000682444934
0.000682428035
0.00068241384
0.000682403938
0.000682398911
0.000682398332
0.000682401058
0.000682405697
0.00068241106
0.000682416444
0.000682421678
0.00068242698
0.000682432725
0.000682439257
0.000682446789
0.000682455401
0.000682465092
0.000682475832
0.000682487603
0.000682500394
0.000682514199
0.000682529002
0.000682544766