/*--------------------------------*- C++ -*----------------------------------*\
| =========                 |                                                 |
| \\      /  F ield         | OpenFOAM: The Open Source CFD Toolbox           |
|  \\    /   O peration     | Version:  v2012                                 |
|   \\  /    A nd           | Website:  www.openfoam.com                      |
|    \\/     M anipulation  |                                                 |
\*---------------------------------------------------------------------------*/
FoamFile
{
    version     2.0;
    format      ascii;
    class       volVectorField;
    location    "2.19";
    object      U;
}
// * * * * * * * * * * * * * * * * * * * * * * * * * * * * * * * * * * * * * //

dimensions      [0 1 -1 0 0 0 0];


internalField   nonuniform List<vector> 
28416
(
(0.099997981 1.14236541e-05 0)
(0.0999842714 3.05091986e-05 0)
(0.0999607318 4.20629082e-05 0)
(0.0999320133 4.41239152e-05 0)
(0.0999030793 3.71086958e-05 0)
(0.099877529 2.25135273e-05 0)
(0.0998587428 1.30156932e-06 0)
(0.0998468149 -2.69022461e-05 0)
(0.0998412648 -5.90984024e-05 0)
(0.0998445992 -9.08844931e-05 0)
(0.0998577035 -0.000117325958 0)
(0.0998789646 -0.000133131787 0)
(0.0999050511 -0.000134149453 0)
(0.0999315819 -0.000118632502 0)
(0.0999539756 -8.7689615e-05 0)
(0.0999684829 -4.48583662e-05 0)
(0.0999737704 4.74914313e-06 0)
(0.0999672487 5.422235e-05 0)
(0.099947157 9.99246626e-05 0)
(0.0999162708 0.000138335119 0)
(0.0998776988 0.000166561698 0)
(0.0998341284 0.000183073414 0)
(0.0997882632 0.000187664118 0)
(0.0997427174 0.000181256074 0)
(0.0996998348 0.000165761265 0)
(0.0996616508 0.000143926675 0)
(0.0996297492 0.000119193382 0)
(0.099604961 9.55707156e-05 0)
(0.0995870334 7.74016926e-05 0)
(0.0995743936 6.88990799e-05 0)
(0.0995641388 7.34763652e-05 0)
(0.0995523877 9.30174657e-05 0)
(0.0995349547 0.000127269396 0)
(0.0995081097 0.000173620395 0)
(0.0994692291 0.000227491623 0)
(0.099417221 0.000283309157 0)
(0.0993526117 0.000335772175 0)
(0.0992772464 0.000381021863 0)
(0.0991936938 0.000417341515 0)
(0.0991045527 0.000445180404 0)
(0.0990118752 0.000466547652 0)
(0.098916867 0.000484057286 0)
(0.0988199068 0.000500009462 0)
(0.0987208047 0.000515820921 0)
(0.0986191509 0.000531919712 0)
(0.0985146086 0.000548007 0)
(0.0984070664 0.000563467114 0)
(0.0982966515 0.000577714402 0)
(0.0981836568 0.000590365341 0)
(0.0980684498 0.000601241623 0)
(0.0979514115 0.000610281693 0)
(0.0978329141 0.000617445459 0)
(0.0977133291 0.000622660816 0)
(0.0975930435 0.000625817096 0)
(0.0974724719 0.000626785059 0)
(0.0973520591 0.00062544028 0)
(0.0972322767 0.000621677305 0)
(0.0971136167 0.000615413466 0)
(0.0969965855 0.000606587054 0)
(0.0968816994 0.000595154561 0)
(0.0967694803 0.000581089163 0)
(0.0966604515 0.00056438047 0)
(0.0965551328 0.000545034868 0)
(0.0964540356 0.000523076087 0)
(0.0963576574 0.000498546152 0)
(0.096266478 0.000471507017 0)
(0.0961809566 0.000442042801 0)
(0.0961015316 0.000410262082 0)
(0.0960286223 0.000376299113 0)
(0.0959626328 0.000340312982 0)
(0.0959039559 0.000302483852 0)
(0.0958529768 0.000263007509 0)
(0.0958100743 0.000222085876 0)
(0.0957756274 0.000179916292 0)
(0.0957500251 0.000136679568 0)
(0.095733633 9.24998662e-05 0)
(0.095726458 4.73855878e-05 0)
(0.0957276425 1.6303507e-06 0)
(0.0957380761 -4.3695616e-05 0)
(0.0957590677 -8.89773041e-05 0)
(0.0957900568 -0.000134211347 0)
(0.0958307452 -0.000179116499 0)
(0.0958810884 -0.000223423256 0)
(0.0959409526 -0.000266886737 0)
(0.0960100802 -0.000309247407 0)
(0.096088148 -0.000350232693 0)
(0.0961747702 -0.000389563733 0)
(0.0962694857 -0.000426954697 0)
(0.0963717637 -0.000462115035 0)
(0.0964810157 -0.000494757714 0)
(0.0965966034 -0.000524610949 0)
(0.0967178458 -0.000551430723 0)
(0.0968440248 -0.000575011698 0)
(0.0969743916 -0.000595194718 0)
(0.0971081729 -0.000611870382 0)
(0.0972445783 -0.000624979428 0)
(0.0973828104 -0.000634511237 0)
(0.0975220749 -0.000640501492 0)
(0.0976615924 -0.000643029484 0)
(0.0978006085 -0.000642215061 0)
(0.0979384043 -0.000638215065 0)
(0.0980743047 -0.000631219082 0)
(0.0982076854 -0.000621444527 0)
(0.0983379783 -0.000609131186 0)
(0.0984646758 -0.000594535436 0)
(0.0985873334 -0.000577924399 0)
(0.0987055704 -0.000559570246 0)
(0.0988190704 -0.000539744885 0)
(0.0989275797 -0.000518715184 0)
(0.0990309053 -0.000496738858 0)
(0.0991289116 -0.000474061026 0)
(0.0992215171 -0.000450911453 0)
(0.0993086893 -0.000427502423 0)
(0.0993904409 -0.000404027181 0)
(0.0994668246 -0.000380658993 0)
(0.0995379283 -0.000357550787 0)
(0.09960387 -0.000334835315 0)
(0.0996647928 -0.000312625711 0)
(0.0997208592 -0.000291016144 0)
(0.0997722474 -0.000270081946 0)
(0.0998191532 -0.000249880133 0)
(0.09986179 -0.000230453389 0)
(0.0999003814 -0.000211832685 0)
(0.0999351559 -0.000194038917 0)
(0.0999663429 -0.000177084182 0)
(0.0999941701 -0.000160973075 0)
(0.100018862 -0.000145704161 0)
(0.100040636 -0.000131271508 0)
(0.100059704 -0.000117665965 0)
(0.100076265 -0.000104875885 0)
(0.10009051 -9.2887163e-05 0)
(0.100102613 -8.16825619e-05 0)
(0.100112739 -7.12402634e-05 0)
(0.100121036 -6.15315829e-05 0)
(0.100127644 -5.25206847e-05 0)
(0.100132697 -4.41652478e-05 0)
(0.100136321 -3.64172434e-05 0)
(0.100138643 -2.92241614e-05 0)
(0.100139797 -2.2531512e-05 0)
(0.100139926 -1.62883251e-05 0)
(0.100139205 -1.04553011e-05 0)
(0.100137827 -5.0213945e-06 0)
(0.100136101 -7.49876924e-08 0)
(0.100133832 4.15833255e-06 0)
(0.100130612 7.8672458e-06 0)
(0.100126561 1.1260926e-05 0)
(0.10012191 1.44299511e-05 0)
(0.100116837 1.73968696e-05 0)
(0.100111451 2.01543767e-05 0)
(0.100105817 2.26911109e-05 0)
(0.100099986 2.49976675e-05 0)
(0.100093998 2.70664793e-05 0)
(0.100087883 2.88955519e-05 0)
(0.100081659 3.0490423e-05 0)
(0.100075342 3.18627526e-05 0)
(0.100068946 3.30281283e-05 0)
(0.100062488 3.40042288e-05 0)
(0.100055984 3.48093422e-05 0)
(0.100049451 3.5461211e-05 0)
(0.100042906 3.59762397e-05 0)
(0.100036368 3.63690547e-05 0)
(0.100029853 3.66523294e-05 0)
(0.100023377 3.68367789e-05 0)
(0.100016954 3.69313214e-05 0)
(0.100010597 3.69433459e-05 0)
(0.100004317 3.68790131e-05 0)
(0.0999981235 3.67435657e-05 0)
(0.0999920244 3.65416375e-05 0)
(0.099986026 3.62775311e-05 0)
(0.0999801336 3.59554366e-05 0)
(0.0999743513 3.55795767e-05 0)
(0.0999686823 3.51542735e-05 0)
(0.0999631297 3.46839473e-05 0)
(0.0999576957 3.41730638e-05 0)
(0.0999523828 3.36260571e-05 0)
(0.099947193 3.30472312e-05 0)
(0.0999421286 3.24406338e-05 0)
(0.0999371916 3.18099423e-05 0)
(0.0999323842 3.11584156e-05 0)
(0.0999277084 3.04889048e-05 0)
(0.0999231662 2.98038849e-05 0)
(0.0999187592 2.9105472e-05 0)
(0.0999144896 2.83954818e-05 0)
(0.0999103574 2.76752894e-05 0)
(0.099906371 2.69465319e-05 0)
(0.0999025102 2.62081062e-05 0)
(0.0998988555 2.54686768e-05 0)
(0.0998951549 2.4691418e-05 0)
(0.0998923432 2.40292985e-05 0)
(0.0998875205 2.277474e-05 0)
(0.099998503 2.45902529e-05 0)
(0.099986226 6.532759e-05 0)
(0.0999624576 9.06007074e-05 0)
(0.0999313968 9.79288547e-05 0)
(0.0998987789 8.87080826e-05 0)
(0.099868715 6.57122205e-05 0)
(0.0998437879 3.08445204e-05 0)
(0.0998266143 -1.53492191e-05 0)
(0.0998201276 -6.8921696e-05 0)
(0.0998259653 -0.000123342867 0)
(0.0998441685 -0.000170235689 0)
(0.0998731137 -0.000200584283 0)
(0.0999090516 -0.000207227375 0)
(0.0999466917 -0.000186961582 0)
(0.0999802201 -0.000141355994 0)
(0.100004423 -7.61236611e-05 0)
(0.100014971 1.89881135e-07 0)
(0.100010001 7.7228202e-05 0)
(0.0999897491 0.000148034933 0)
(0.0999556741 0.000207029201 0)
(0.0999110786 0.000250108038 0)
(0.0998598547 0.000275265023 0)
(0.0998058973 0.000282413533 0)
(0.0997528801 0.000272953951 0)
(0.0997040624 0.000249505719 0)
(0.099662143 0.000215801555 0)
(0.0996291082 0.000176700072 0)
(0.0996059805 0.000138197329 0)
(0.0995924943 0.000107173885 0)
(0.0995868462 9.06468379e-05 0)
(0.0995856752 9.45365217e-05 0)
(0.0995843433 0.000122238033 0)
(0.0995775391 0.00017349046 0)
(0.0995601777 0.000244046056 0)
(0.0995283961 0.000326388484 0)
(0.0994803146 0.000411383235 0)
(0.0994163128 0.000490403672 0)
(0.0993387298 0.000557276666 0)
(0.0992510845 0.000609426277 0)
(0.0991570754 0.000647875057 0)
(0.0990596896 0.000676191935 0)
(0.0989606912 0.000698866823 0)
(0.0988605898 0.000719763344 0)
(0.0987589965 0.000741178206 0)
(0.0986551474 0.00076369827 0)
(0.0985483631 0.000786682556 0)
(0.0984383017 0.000808987404 0)
(0.0983249924 0.000829568282 0)
(0.0982087255 0.000847768354 0)
(0.0980899088 0.000863309541 0)
(0.0979689641 0.000876126049 0)
(0.0978462886 0.000886190541 0)
(0.0977222654 0.000893417584 0)
(0.0975972901 0.000897651767 0)
(0.0974717912 0.000898703056 0)
(0.0973462368 0.000896387892 0)
(0.0972211291 0.000890553628 0)
(0.0970969959 0.000881084572 0)
(0.0969743816 0.000867898253 0)
(0.0968538408 0.00085094048 0)
(0.096735934 0.000830183123 0)
(0.0966212228 0.000805624422 0)
(0.0965102653 0.000777290179 0)
(0.0964036113 0.000745234479 0)
(0.0963017988 0.000709539529 0)
(0.09620535 0.000670314676 0)
(0.0961147696 0.000627694803 0)
(0.0960305435 0.000581838302 0)
(0.0959531374 0.000532924716 0)
(0.0958829966 0.000481152136 0)
(0.0958205459 0.000426734375 0)
(0.0957661887 0.000369897882 0)
(0.0957203027 0.000310876707 0)
(0.095683245 0.000249908814 0)
(0.0956553245 0.000187218232 0)
(0.0956367127 0.000122999185 0)
(0.0956276382 5.74397767e-05 0)
(0.0956285514 -9.08140359e-06 0)
(0.0956396205 -7.55282657e-05 0)
(0.0956608774 -0.000142017699 0)
(0.0956924661 -0.000208358309 0)
(0.0957343592 -0.000274145061 0)
(0.0957864634 -0.00033898317 0)
(0.0958486379 -0.000402489635 0)
(0.0959206587 -0.000464255738 0)
(0.0960022173 -0.000523853985 0)
(0.0960929259 -0.000580853673 0)
(0.0961923148 -0.000634827843 0)
(0.0962998342 -0.000685360905 0)
(0.0964148622 -0.000732059326 0)
(0.0965367119 -0.000774562326 0)
(0.0966646387 -0.000812551347 0)
(0.0967978481 -0.000845758402 0)
(0.0969355041 -0.000873973205 0)
(0.0970767398 -0.000897048773 0)
(0.0972206685 -0.000914905175 0)
(0.0973663962 -0.000927531207 0)
(0.0975130357 -0.000934983936 0)
(0.0976597192 -0.000937386141 0)
(0.0978056116 -0.000934921905 0)
(0.0979499216 -0.000927830681 0)
(0.0980919118 -0.000916400153 0)
(0.0982309068 -0.000900958258 0)
(0.0983662989 -0.000881864669 0)
(0.0984975526 -0.000859502057 0)
(0.098624207 -0.000834267452 0)
(0.0987458761 -0.000806563954 0)
(0.098862248 -0.000776793051 0)
(0.0989730829 -0.000745347735 0)
(0.0990782089 -0.00071260653 0)
(0.0991775186 -0.000678928513 0)
(0.0992709629 -0.000644649378 0)
(0.0993585464 -0.000610078487 0)
(0.0994403209 -0.00057549685 0)
(0.0995163795 -0.00054115597 0)
(0.0995868511 -0.000507277446 0)
(0.0996518941 -0.000474053142 0)
(0.0997116917 -0.000441645804 0)
(0.099766446 -0.00041018979 0)
(0.0998163748 -0.000379791385 0)
(0.0998617093 -0.000350530006 0)
(0.0999026906 -0.000322463746 0)
(0.0999395659 -0.000295633341 0)
(0.099972584 -0.00027006479 0)
(0.100001992 -0.000245771356 0)
(0.100028033 -0.000222755323 0)
(0.100050941 -0.000201009546 0)
(0.100070945 -0.000180518753 0)
(0.100088262 -0.00016126056 0)
(0.100103098 -0.000143206343 0)
(0.10011565 -0.000126322073 0)
(0.100126102 -0.00011056893 0)
(0.100134629 -9.59033041e-05 0)
(0.100141395 -8.22759472e-05 0)
(0.100146553 -6.96320464e-05 0)
(0.100150251 -5.7911788e-05 0)
(0.100152627 -4.70511965e-05 0)
(0.100153816 -3.69838541e-05 0)
(0.100153951 -2.76443933e-05 0)
(0.100153159 -1.89755849e-05 0)
(0.100151568 -1.09423063e-05 0)
(0.100149227 -3.57015857e-06 0)
(0.100146172 3.09060325e-06 0)
(0.100142527 8.86310699e-06 0)
(0.100138386 1.39266962e-05 0)
(0.100133755 1.84557918e-05 0)
(0.100128651 2.25483981e-05 0)
(0.10012314 2.62585793e-05 0)
(0.100117295 2.96185631e-05 0)
(0.100111177 3.26543985e-05 0)
(0.100104839 3.53870183e-05 0)
(0.100098333 3.78303622e-05 0)
(0.100091701 3.9994886e-05 0)
(0.100084977 4.18912837e-05 0)
(0.100078188 4.35318994e-05 0)
(0.100071357 4.49309138e-05 0)
(0.100064502 4.61040079e-05 0)
(0.10005764 4.70677499e-05 0)
(0.100050787 4.7838896e-05 0)
(0.100043957 4.84337868e-05 0)
(0.100037162 4.88679804e-05 0)
(0.100030417 4.91561351e-05 0)
(0.100023731 4.93117853e-05 0)
(0.100017118 4.93471694e-05 0)
(0.100010585 4.92732408e-05 0)
(0.100004143 4.90997834e-05 0)
(0.0999977996 4.88355538e-05 0)
(0.0999915604 4.84884337e-05 0)
(0.0999854319 4.80655803e-05 0)
(0.0999794187 4.75735637e-05 0)
(0.099973525 4.70184804e-05 0)
(0.0999677541 4.64060409e-05 0)
(0.099962109 4.57416275e-05 0)
(0.0999565921 4.50303248e-05 0)
(0.0999512054 4.42769253e-05 0)
(0.0999459507 4.34859265e-05 0)
(0.0999408296 4.26615345e-05 0)
(0.0999358433 4.18076441e-05 0)
(0.0999309932 4.09277989e-05 0)
(0.0999262803 4.00251675e-05 0)
(0.0999217059 3.91025462e-05 0)
(0.0999172709 3.81623475e-05 0)
(0.0999129768 3.72066427e-05 0)
(0.0999088228 3.62369306e-05 0)
(0.0999048169 3.52549374e-05 0)
(0.0999009372 3.42589849e-05 0)
(0.099897265 3.32584366e-05 0)
(0.0998935341 3.22105668e-05 0)
(0.0998906982 3.12970027e-05 0)
(0.0998857264 2.96652659e-05 0)
(0.0999982513 3.08562384e-05 0)
(0.0999853582 8.22689707e-05 0)
(0.0999616963 0.000114794746 0)
(0.0999313774 0.000125958214 0)
(0.0998996991 0.000117688297 0)
(0.0998705419 9.32337788e-05 0)
(0.0998466582 5.50327144e-05 0)
(0.0998303249 5.11210497e-06 0)
(0.0998239589 -5.32602802e-05 0)
(0.0998294514 -0.000114384863 0)
(0.099846956 -0.000168763827 0)
(0.0998747598 -0.000205816183 0)
(0.0999092169 -0.000216983242 0)
(0.0999452405 -0.000198193923 0)
(0.0999772651 -0.000150862615 0)
(0.100000195 -8.12459429e-05 0)
(0.100010257 1.31768662e-06 0)
(0.100005949 8.73575657e-05 0)
(0.0999875859 0.000167043186 0)
(0.0999565485 0.000233182103 0)
(0.0999153868 0.00028117833 0)
(0.0998674717 0.000308834325 0)
(0.0998164223 0.000316048258 0)
(0.0997657174 0.000304366159 0)
(0.0997185017 0.000276632485 0)
(0.0996774624 0.000236880086 0)
(0.099644664 0.000190421738 0)
(0.0996212817 0.000143932381 0)
(0.099607257 0.000105202325 0)
(0.0996009928 8.23092403e-05 0)
(0.0995992566 8.22179669e-05 0)
(0.0995974775 0.000109143943 0)
(0.0995904683 0.000163212422 0)
(0.0995733471 0.000239940669 0)
(0.0995424029 0.000330896702 0)
(0.0994957411 0.000425502265 0)
(0.0994335441 0.000513508319 0)
(0.0993578373 0.000587381035 0)
(0.0992718108 0.000643815271 0)
(0.0991789154 0.000683886411 0)
(0.0990820266 0.000711871597 0)
(0.098982933 0.000733288369 0)
(0.0988822599 0.000752959226 0)
(0.0987797633 0.000773791945 0)
(0.0986747985 0.000796553466 0)
(0.0985667524 0.000820448089 0)
(0.0984552979 0.000844027635 0)
(0.0983404456 0.000865963293 0)
(0.0982224584 0.000885424956 0)
(0.0981017237 0.000902077236 0)
(0.0979786569 0.000915866742 0)
(0.097853662 0.000926794655 0)
(0.0977271361 0.000934787272 0)
(0.0975994923 0.000939677088 0)
(0.097471178 0.000941247119 0)
(0.0973426812 0.000939284164 0)
(0.0972145255 0.000933610945 0)
(0.0970872618 0.000924094162 0)
(0.0969614599 0.000910639448 0)
(0.0968377019 0.00089318446 0)
(0.0967165764 0.000871695307 0)
(0.0965986738 0.000846166157 0)
(0.0964845807 0.000816619881 0)
(0.0963748746 0.000783108188 0)
(0.0962701178 0.000745710981 0)
(0.096170853 0.00070453548 0)
(0.0960775994 0.000659715556 0)
(0.095990851 0.000611411242 0)
(0.0959110773 0.000559807762 0)
(0.0958387258 0.000505113257 0)
(0.0957742248 0.000447555264 0)
(0.0957179841 0.000387375774 0)
(0.0956703949 0.000324827086 0)
(0.0956318241 0.00026017018 0)
(0.0956026118 0.000193669085 0)
(0.0955830808 0.000125614668 0)
(0.0955734197 5.63791227e-05 0)
(0.0955736799 -1.37013182e-05 0)
(0.0955841487 -8.44007528e-05 0)
(0.0956051905 -0.000155351327 0)
(0.0956368907 -0.000226223373 0)
(0.0956792154 -0.000296649085 0)
(0.0957321041 -0.000366210939 0)
(0.0957954351 -0.000434468584 0)
(0.0958689942 -0.000500963987 0)
(0.0959524797 -0.000565222435 0)
(0.0960455077 -0.000626760332 0)
(0.0961476088 -0.00068509309 0)
(0.0962582268 -0.000739743586 0)
(0.096376723 -0.000790253614 0)
(0.0965023818 -0.000836197504 0)
(0.0966344178 -0.000877196016 0)
(0.0967719845 -0.000912929031 0)
(0.0969141853 -0.000943145824 0)
(0.097060087 -0.000967672162 0)
(0.0972087336 -0.000986414117 0)
(0.097359162 -0.000999358983 0)
(0.0975104175 -0.00100657381 0)
(0.0976615691 -0.00100820184 0)
(0.0978117235 -0.00100445712 0)
(0.0979600384 -0.000995617428 0)
(0.098105733 -0.000982015784 0)
(0.0982480969 -0.000964030891 0)
(0.0983864966 -0.000942076888 0)
(0.09852038 -0.000916592851 0)
(0.0986492783 -0.000888032485 0)
(0.0987728061 -0.000856854333 0)
(0.0988906592 -0.000823512803 0)
(0.0990026122 -0.000788450246 0)
(0.0991085127 -0.000752090197 0)
(0.099208277 -0.000714831842 0)
(0.0993018831 -0.000677045754 0)
(0.0993893641 -0.000639070804 0)
(0.099470802 -0.000601212161 0)
(0.0995463205 -0.000563740324 0)
(0.0996160783 -0.000526891032 0)
(0.0996802633 -0.000490865873 0)
(0.0997390863 -0.000455833469 0)
(0.099792776 -0.000421931046 0)
(0.0998415747 -0.000389266301 0)
(0.0998857345 -0.000357919988 0)
(0.0999255135 -0.000327949505 0)
(0.0999611728 -0.000299392169 0)
(0.0999929729 -0.000272267897 0)
(0.100021171 -0.00024658152 0)
(0.100046018 -0.000222324967 0)
(0.100067758 -0.000199479455 0)
(0.100086628 -0.000178017735 0)
(0.100102854 -0.000157906093 0)
(0.100116649 -0.000139105799 0)
(0.100128215 -0.000121573916 0)
(0.100137739 -0.000105263596 0)
(0.100145396 -9.01243343e-05 0)
(0.100151348 -7.6102769e-05 0)
(0.100155747 -6.31432568e-05 0)
(0.100158735 -5.11888931e-05 0)
(0.100160447 -4.01833429e-05 0)
(0.10016101 -3.00734087e-05 0)
(0.100160547 -2.08120884e-05 0)
(0.100159167 -1.23601762e-05 0)
(0.100156947 -4.67880223e-06 0)
(0.100153984 2.31556908e-06 0)
(0.100150413 8.69713797e-06 0)
(0.100146301 1.45004727e-05 0)
(0.100141648 1.97294247e-05 0)
(0.100136477 2.4411585e-05 0)
(0.100130882 2.86068865e-05 0)
(0.100124964 3.23625793e-05 0)
(0.100118802 3.57084116e-05 0)
(0.100112446 3.86714033e-05 0)
(0.100105932 4.12798299e-05 0)
(0.10009929 4.35599371e-05 0)
(0.100092546 4.55355255e-05 0)
(0.100085718 4.72294075e-05 0)
(0.100078828 4.86635937e-05 0)
(0.100071894 4.98587973e-05 0)
(0.100064935 5.08343301e-05 0)
(0.100057968 5.16085413e-05 0)
(0.10005101 5.21989518e-05 0)
(0.100044078 5.26220955e-05 0)
(0.100037187 5.28932822e-05 0)
(0.100030351 5.3026305e-05 0)
(0.100023584 5.30335007e-05 0)
(0.100016897 5.2925944e-05 0)
(0.100010299 5.27135766e-05 0)
(0.1000038 5.24053293e-05 0)
(0.0999974071 5.20092776e-05 0)
(0.0999911255 5.1532805e-05 0)
(0.0999849606 5.09827509e-05 0)
(0.0999789162 5.03655298e-05 0)
(0.0999729955 4.96872147e-05 0)
(0.099967201 4.89535829e-05 0)
(0.0999615348 4.8170128e-05 0)
(0.0999559987 4.73420503e-05 0)
(0.0999505942 4.64742326e-05 0)
(0.099945323 4.5571222e-05 0)
(0.0999401863 4.46372304e-05 0)
(0.0999351857 4.36761206e-05 0)
(0.0999303225 4.26913726e-05 0)
(0.0999255977 4.16860599e-05 0)
(0.0999210125 4.06628505e-05 0)
(0.0999165677 3.96239964e-05 0)
(0.0999122646 3.85713756e-05 0)
(0.099908102 3.7506277e-05 0)
(0.0999040873 3.6430126e-05 0)
(0.0999001985 3.53412264e-05 0)
(0.0998965147 3.42480002e-05 0)
(0.099892778 3.31098605e-05 0)
(0.0998899295 3.21067821e-05 0)
(0.0998850367 3.03622089e-05 0)
(0.0999983488 3.94458724e-05 0)
(0.0999855292 0.000105892963 0)
(0.0999612055 0.000148672659 0)
(0.0999293005 0.000164064958 0)
(0.0998954031 0.00015426397 0)
(0.0998639014 0.000123391771 0)
(0.0998380802 7.45631897e-05 0)
(0.0998210699 9.99846608e-06 0)
(0.0998151069 -6.63502671e-05 0)
(0.0998219166 -0.0001461991 0)
(0.0998423658 -0.000217480551 0)
(0.0998746854 -0.000266745304 0)
(0.0999148083 -0.000282917354 0)
(0.0999570544 -0.00026057399 0)
(0.0999951257 -0.000201286516 0)
(0.100023301 -0.000112843007 0)
(0.100037771 -6.94529613e-06 0)
(0.100035934 0.000103214256 0)
(0.100017201 0.000205603667 0)
(0.0999838185 0.000290763465 0)
(0.0999391622 0.000352609951 0)
(0.0998871719 0.000388323771 0)
(0.0998319799 0.000397793568 0)
(0.0997776133 0.000383002951 0)
(0.0997277515 0.000347571061 0)
(0.0996855019 0.000296596102 0)
(0.0996531618 0.000236782566 0)
(0.0996319198 0.000176582322 0)
(0.0996215282 0.000125925085 0)
(0.0996200726 9.51887946e-05 0)
(0.0996239857 9.33935655e-05 0)
(0.0996283532 0.000126044076 0)
(0.099627506 0.000193354806 0)
(0.099615927 0.000289602417 0)
(0.0995893153 0.000404011879 0)
(0.0995454275 0.000523085473 0)
(0.0994844041 0.00063376674 0)
(0.0994084898 0.000726471634 0)
(0.0993212508 0.000797000406 0)
(0.0992265463 0.000846723011 0)
(0.0991275912 0.000881083887 0)
(0.0990263864 0.000907116689 0)
(0.0989236355 0.000930986547 0)
(0.0988190674 0.000956432239 0)
(0.098711953 0.000984465306 0)
(0.0986015819 0.0010140935 0)
(0.0984875471 0.0010434741 0)
(0.098369808 0.00107090001 0)
(0.0982486032 0.00109529177 0)
(0.0981243136 0.00111620176 0)
(0.0979973581 0.001133549 0)
(0.0978681491 0.00114733042 0)
(0.0977370961 0.0011574535 0)
(0.0976046293 0.00116370889 0)
(0.0974712188 0.00116582436 0)
(0.097337381 0.00116353165 0)
(0.0972036733 0.00115660743 0)
(0.0970706846 0.00114488406 0)
(0.0969390249 0.0011282435 0)
(0.0968093176 0.00110660886 0)
(0.0966821925 0.00107994021 0)
(0.0965582801 0.00104823463 0)
(0.0964382055 0.00101152776 0)
(0.0963225832 0.000969894432 0)
(0.0962120135 0.000923447572 0)
(0.0961070791 0.000872335376 0)
(0.0960083442 0.000816737076 0)
(0.0959163518 0.000756858 0)
(0.0958316211 0.000692924762 0)
(0.0957546444 0.000625181281 0)
(0.0956858836 0.000553886099 0)
(0.0956257697 0.000479311006 0)
(0.0955747016 0.000401739981 0)
(0.095533049 0.000321469305 0)
(0.0955011531 0.00023880919 0)
(0.095479311 0.000154078931 0)
(0.0954678205 6.76037447e-05 0)
(0.0954669948 -2.01862445e-05 0)
(0.0954770496 -0.000108759408 0)
(0.0954981246 -0.000197688105 0)
(0.0955303428 -0.000286538643 0)
(0.0955737655 -0.000374816719 0)
(0.0956283806 -0.000461987886 0)
(0.0956940979 -0.000547491745 0)
(0.0957707376 -0.000630740436 0)
(0.0958580234 -0.000711122427 0)
(0.0959555778 -0.000788015418 0)
(0.0960629188 -0.000860800607 0)
(0.0961794591 -0.000928876404 0)
(0.0963045104 -0.0009916729 0)
(0.0964372899 -0.00104866662 0)
(0.0965769302 -0.00109939441 0)
(0.0967224908 -0.00114346621 0)
(0.0968729722 -0.00118057622 0)
(0.0970273319 -0.0012105121 0)
(0.0971845016 -0.00123316129 0)
(0.0973434055 -0.00124851387 0)
(0.097502979 -0.00125666197 0)
(0.0976621874 -0.00125779562 0)
(0.0978200422 -0.00125219569 0)
(0.0979756169 -0.00124022419 0)
(0.0981280595 -0.00122231281 0)
(0.0982766022 -0.00119895004 0)
(0.098420569 -0.00117066771 0)
(0.0985593793 -0.0011380273 0)
(0.0986925501 -0.00110160667 0)
(0.0988196945 -0.00106198753 0)
(0.0989405191 -0.00101974418 0)
(0.0990548187 -0.000975433581 0)
(0.0991624708 -0.00092958698 0)
(0.0992634276 -0.000882703231 0)
(0.0993577087 -0.000835243691 0)
(0.0994453927 -0.00078762868 0)
(0.099526609 -0.000740235315 0)
(0.0996015297 -0.000693396617 0)
(0.0996703618 -0.000647401681 0)
(0.0997333403 -0.000602496686 0)
(0.0997907215 -0.000558886649 0)
(0.0998427773 -0.000516737727 0)
(0.0998897902 -0.000476179981 0)
(0.0999320489 -0.000437310643 0)
(0.0999698445 -0.000400197842 0)
(0.100003467 -0.000364884414 0)
(0.100033203 -0.00033139157 0)
(0.100059331 -0.000299722299 0)
(0.100082121 -0.000269864355 0)
(0.100101831 -0.000241792626 0)
(0.100118705 -0.000215470931 0)
(0.100132973 -0.000190853417 0)
(0.100144854 -0.000167885909 0)
(0.100154551 -0.000146507492 0)
(0.10016226 -0.000126652228 0)
(0.100168161 -0.000108250755 0)
(0.100172425 -9.12315665e-05 0)
(0.100175209 -7.55217945e-05 0)
(0.100176661 -6.10477701e-05 0)
(0.100176917 -4.7735564e-05 0)
(0.100176102 -3.55113084e-05 0)
(0.10017433 -2.43011661e-05 0)
(0.100171722 -1.4034059e-05 0)
(0.100168455 -4.6561088e-06 0)
(0.100164619 3.8216898e-06 0)
(0.100160195 1.14931646e-05 0)
(0.100155225 1.84020684e-05 0)
(0.100149794 2.46030683e-05 0)
(0.100143974 3.01746748e-05 0)
(0.100137804 3.51864585e-05 0)
(0.100131316 3.96909858e-05 0)
(0.100124559 4.37271912e-05 0)
(0.100117592 4.73251356e-05 0)
(0.100110469 5.05089434e-05 0)
(0.100103234 5.33000028e-05 0)
(0.100095928 5.57199804e-05 0)
(0.100088581 5.77915805e-05 0)
(0.100081218 5.95381308e-05 0)
(0.100073859 6.09835727e-05 0)
(0.10006652 6.21522964e-05 0)
(0.100059215 6.30682418e-05 0)
(0.100051958 6.37542081e-05 0)
(0.10004476 6.42315669e-05 0)
(0.100037632 6.4520036e-05 0)
(0.100030582 6.46374476e-05 0)
(0.10002362 6.45998941e-05 0)
(0.100016754 6.44219771e-05 0)
(0.100009991 6.41169508e-05 0)
(0.100003337 6.36968233e-05 0)
(0.0999967999 6.31724706e-05 0)
(0.0999903834 6.25537495e-05 0)
(0.0999840928 6.18496071e-05 0)
(0.0999779319 6.10681874e-05 0)
(0.099971904 6.02169353e-05 0)
(0.0999660121 5.93026911e-05 0)
(0.0999602582 5.83317729e-05 0)
(0.0999546442 5.73100385e-05 0)
(0.0999491712 5.6242935e-05 0)
(0.0999438403 5.51355182e-05 0)
(0.0999386523 5.39924334e-05 0)
(0.0999336075 5.28178953e-05 0)
(0.0999287063 5.16156944e-05 0)
(0.099923949 5.03892086e-05 0)
(0.0999193358 4.91414093e-05 0)
(0.0999148667 4.78748414e-05 0)
(0.0999105424 4.65916732e-05 0)
(0.0999063608 4.52934554e-05 0)
(0.099902329 4.39820179e-05 0)
(0.099898423 4.26557685e-05 0)
(0.0998947237 4.13251817e-05 0)
(0.0998909572 3.99447079e-05 0)
(0.0998880927 3.87262864e-05 0)
(0.0998830331 3.66457349e-05 0)
(0.0999983161 4.7696341e-05 0)
(0.0999853815 0.00012842335 0)
(0.0999609863 0.000181293011 0)
(0.0999291005 0.000202045821 0)
(0.0998952557 0.000193204917 0)
(0.0998637339 0.000159425381 0)
(0.0998377012 0.000104264862 0)
(0.0998199162 3.03217729e-05 0)
(0.0998136242 -5.79489107e-05 0)
(0.0998210743 -0.000151237531 0)
(0.0998421545 -0.000235721682 0)
(0.099875 -0.000295743579 0)
(0.0999156776 -0.000318230112 0)
(0.0999585989 -0.000296520797 0)
(0.0999975845 -0.000232035468 0)
(0.100026997 -0.000133468528 0)
(0.10004238 -1.43149536e-05 0)
(0.100041715 0.000110033197 0)
(0.100025159 0.000225957778 0)
(0.0999941512 0.00032266896 0)
(0.0999516413 0.000393039675 0)
(0.0999014665 0.00043364929 0)
(0.0998477607 0.000444234892 0)
(0.0997945742 0.000426934169 0)
(0.099745612 0.000385704054 0)
(0.0997040363 0.000326154422 0)
(0.0996722515 0.000255757646 0)
(0.0996516153 0.000184090281 0)
(0.0996420905 0.00012258098 0)
(0.0996419294 8.33467352e-05 0)
(0.0996475599 7.71001137e-05 0)
(0.0996538862 0.000110611594 0)
(0.0996550722 0.000184563338 0)
(0.0996455601 0.000292656704 0)
(0.0996210343 0.000422525013 0)
(0.0995791654 0.000558395797 0)
(0.0995199446 0.000684810389 0)
(0.0994454632 0.00079026742 0)
(0.0993591814 0.000869596353 0)
(0.0992649235 0.000924287316 0)
(0.0991659299 0.00096078077 0)
(0.0990642587 0.000987515065 0)
(0.0989606691 0.0010119542 0)
(0.0988549235 0.00103866864 0)
(0.0987463002 0.00106892977 0)
(0.0986340782 0.00110155945 0)
(0.0985178342 0.00113432274 0)
(0.0983975153 0.00116513415 0)
(0.0982733557 0.00119266931 0)
(0.0981457407 0.00121637988 0)
(0.0980151 0.00123617356 0)
(0.0978818615 0.00125205982 0)
(0.0977464553 0.00126394172 0)
(0.0976093365 0.00127157908 0)
(0.0974710052 0.001274653 0)
(0.0973320128 0.00127284756 0)
(0.0971929562 0.00126590065 0)
(0.0970544673 0.00125361761 0)
(0.0969172029 0.00123586413 0)
(0.0967818356 0.00121255564 0)
(0.0966490468 0.00118365157 0)
(0.0965195202 0.00114915424 0)
(0.0963939345 0.00110910914 0)
(0.0962729563 0.00106360384 0)
(0.0961572323 0.00101276523 0)
(0.0960473819 0.000956755724 0)
(0.0959439908 0.000895769707 0)
(0.0958476093 0.000830030442 0)
(0.0957587531 0.00075978716 0)
(0.0956779085 0.000685311652 0)
(0.0956055372 0.000606894533 0)
(0.0955420798 0.000524841478 0)
(0.0954879567 0.000439470813 0)
(0.0954435653 0.000351113603 0)
(0.0954092734 0.000260114311 0)
(0.0953854193 0.000166840983 0)
(0.0953723049 7.17018539e-05 0)
(0.0953701968 -2.49014069e-05 0)
(0.0953793696 -0.000122562053 0)
(0.0954000846 -0.000220821756 0)
(0.0954325203 -0.000319178796 0)
(0.0954767668 -0.000417083976 0)
(0.0955328391 -0.000513939703 0)
(0.0956006724 -0.000609105837 0)
(0.0956801079 -0.000701905456 0)
(0.0957708836 -0.000791632254 0)
(0.0958726276 -0.000877561566 0)
(0.0959848534 -0.000958964131 0)
(0.0961069561 -0.00103512231 0)
(0.0962382129 -0.00110534891 0)
(0.0963777879 -0.00116900766 0)
(0.0965247413 -0.00122553345 0)
(0.0966780416 -0.0012744505 0)
(0.0968365833 -0.00131538751 0)
(0.0969992063 -0.00134808885 0)
(0.0971647186 -0.00137242147 0)
(0.0973319192 -0.00138837761 0)
(0.0974996215 -0.00139607323 0)
(0.097666676 -0.00139574252 0)
(0.0978319902 -0.00138772879 0)
(0.0979945467 -0.00137247222 0)
(0.0981534179 -0.00135049529 0)
(0.0983077771 -0.00132238653 0)
(0.0984569062 -0.00128878354 0)
(0.0986001997 -0.00125035586 0)
(0.0987371651 -0.0012077886 0)
(0.0988674212 -0.00116176721 0)
(0.0989906928 -0.00111296388 0)
(0.0991068041 -0.00106202583 0)
(0.0992156704 -0.00100956577 0)
(0.0993172891 -0.000956154291 0)
(0.0994117293 -0.000902314442 0)
(0.0994991221 -0.000848518157 0)
(0.0995796507 -0.000795184369 0)
(0.099653541 -0.000742678657 0)
(0.0997210526 -0.00069131418 0)
(0.0997824707 -0.000641353595 0)
(0.099838099 -0.000593011823 0)
(0.0998882529 -0.000546459399 0)
(0.0999332543 -0.000501826217 0)
(0.0999734268 -0.000459205577 0)
(0.100009092 -0.000418658366 0)
(0.100040564 -0.000380217102 0)
(0.100068149 -0.000343889666 0)
(0.100092145 -0.00030966269 0)
(0.100112833 -0.000277504751 0)
(0.100130487 -0.000247369564 0)
(0.100145367 -0.000219199307 0)
(0.100157718 -0.000192927797 0)
(0.100167771 -0.000168483083 0)
(0.100175743 -0.000145789221 0)
(0.100181829 -0.000124767297 0)
(0.100186212 -0.000105336117 0)
(0.100189059 -8.74129762e-05 0)
(0.100190522 -7.09146048e-05 0)
(0.100190746 -5.57583014e-05 0)
(0.100189865 -4.18633061e-05 0)
(0.100188006 -2.91527037e-05 0)
(0.100185287 -1.75562288e-05 0)
(0.100181795 -7.01187422e-06 0)
(0.100177514 2.61971717e-06 0)
(0.100172585 1.1326361e-05 0)
(0.100167206 1.91495251e-05 0)
(0.100161401 2.61582074e-05 0)
(0.100155206 3.24235388e-05 0)
(0.100148666 3.79988307e-05 0)
(0.100141842 4.29350092e-05 0)
(0.1001348 4.7287232e-05 0)
(0.100127594 5.11126045e-05 0)
(0.100120256 5.4462996e-05 0)
(0.100112812 5.73834977e-05 0)
(0.100105291 5.99134568e-05 0)
(0.100097717 6.20860143e-05 0)
(0.100090114 6.39287708e-05 0)