/*--------------------------------*- C++ -*----------------------------------*\
| =========                 |                                                 |
| \\      /  F ield         | OpenFOAM: The Open Source CFD Toolbox           |
|  \\    /   O peration     | Version:  v2012                                 |
|   \\  /    A nd           | Website:  www.openfoam.com                      |
|    \\/     M anipulation  |                                                 |
\*---------------------------------------------------------------------------*/
FoamFile
{
    version     2.0;
    format      ascii;
    class       surfaceVectorField;
    location    "2.19";
    object      Uf;
}
// * * * * * * * * * * * * * * * * * * * * * * * * * * * * * * * * * * * * * //

dimensions      [0 1 -1 0 0 0 0];


internalField   nonuniform List<vector> 
56481
(
(0.0999916818 2.09664272e-05 0)
(0.099998242 1.94083156e-05 0)
(0.0999722833 3.62860529e-05 0)
(0.0999852487 5.01935669e-05 0)
(0.0999461249 4.30934117e-05 0)
(0.0999615947 6.90471785e-05 0)
(0.0999175411 4.06163052e-05 0)
(0.0999317051 7.38320348e-05 0)
(0.099890304 2.98111122e-05 0)
(0.0999009291 6.55462858e-05 0)
(0.0998676459 1.19075483e-05 0)
(0.099873122 4.63432396e-05 0)
(0.0998533507 -1.28003384e-05 0)
(0.0998512654 1.74458183e-05 0)
(0.0998441848 -4.30003256e-05 0)
(0.0998367146 -1.93269804e-05 0)
(0.0998429565 -7.49914464e-05 0)
(0.0998306962 -6.15525171e-05 0)
(0.0998511407 -0.000104105227 0)
(0.0998352823 -0.000104640408 0)
(0.0998682612 -0.000125228872 0)
(0.099850936 -0.000141554105 0)
(0.0998918916 -0.00013364062 0)
(0.0998760391 -0.000164850016 0)
(0.0999181511 -0.000126390978 0)
(0.0999070514 -0.000168745579 0)
(0.0999425375 -0.000103161057 0)
(0.0999391368 -0.000150777956 0)
(0.0999609341 -6.62739925e-05 0)
(0.0999670978 -0.000112442161 0)
(0.0999706067 -2.00546116e-05 0)
(0.099986453 -5.86758965e-05 0)
(0.0999711199 2.94857487e-05 0)
(0.0999943706 3.18311373e-06 0)
(0.099957062 7.70735043e-05 0)
(0.0999886249 6.7672387e-05 0)
(0.0999315146 0.000119129891 0)
(0.0999684531 0.000126042481 0)
(0.0998968476 0.00015244841 0)
(0.0999359724 0.000174719086 0)
(0.0998557543 0.000174817555 0)
(0.0998943887 0.000210321697 0)
(0.0998110045 0.000185368766 0)
(0.0998469915 0.000231146983 0)
(0.0997652721 0.000184460096 0)
(0.0997970803 0.000237052217 0)
(0.0997210428 0.00017350867 0)
(0.0997477988 0.000229160124 0)
(0.0996805172 0.00015484397 0)
(0.0997019486 0.000209704319 0)
(0.0996454953 0.000131560028 0)
(0.0996618969 0.000181891403 0)
(0.0996171639 0.000107382048 0)
(0.0996294287 0.000149857511 0)
(0.0995958044 8.64862044e-05 0)
(0.0996054707 0.000118624581 0)
(0.0995805084 7.31503863e-05 0)
(0.0995897638 9.38570997e-05 0)
(0.0995690415 7.11877226e-05 0)
(0.0995806199 8.12454826e-05 0)
(0.0995580131 8.32469155e-05 0)
(0.099574907 8.55194825e-05 0)
(0.099543398 0.000110143431 0)
(0.0995683655 0.00010932479 0)
(0.0995212458 0.000150444896 0)
(0.0995562469 0.000152365363 0)
(0.0994883791 0.000200556009 0)
(0.0995341437 0.000211166386 0)
(0.0994429378 0.00025540039 0)
(0.0994988126 0.000279643784 0)
(0.0993846378 0.000309540666 0)
(0.0994487678 0.000350415121 0)
(0.0993146633 0.000358397019 0)
(0.0993844623 0.000416494972 0)
(0.0992352185 0.000399181689 0)
(0.0993079881 0.000472853004 0)
(0.0991488854 0.000431260959 0)
(0.0992223892 0.000517337607 0)
(0.0990579882 0.000455864028 0)
(0.0991308141 0.000550688361 0)
(0.0989641562 0.000475302469 0)
(0.0990357824 0.000575704321 0)
(0.0988681827 0.000492033374 0)
(0.0989387791 0.000595949723 0)
(0.0987701635 0.000507915191 0)
(0.0988402483 0.000614516834 0)
(0.0986697996 0.000523870317 0)
(0.0987399006 0.000633268335 0)
(0.0985667181 0.000539963356 0)
(0.0986371492 0.000652712886 0)
(0.0984606947 0.000555737057 0)
(0.0985314858 0.000672378402 0)
(0.0983517369 0.000570590758 0)
(0.0984226841 0.000691381676 0)
(0.098240054 0.000584039871 0)
(0.098310822 0.000708904326 0)
(0.0981259758 0.000595803482 0)
(0.0981961911 0.000724423878 0)
(0.0980098764 0.000605761658 0)
(0.0980791793 0.000737710777 0)
(0.0978921322 0.000613863576 0)
(0.0979601878 0.000748700482 0)
(0.0977731149 0.000620053138 0)
(0.0978396013 0.000757358484 0)
(0.0976532034 0.000624238956 0)
(0.0977177972 0.000763605078 0)
(0.0975327985 0.000626301078 0)
(0.0975951668 0.000767306148 0)
(0.0974123293 0.00062611267 0)
(0.0974721315 0.000768300944 0)
(0.0972922541 0.000623558793 0)
(0.0973491479 0.000766434441 0)
(0.0971730542 0.000618545385 0)
(0.0972267029 0.000761576707 0)
(0.0970552285 0.00061100026 0)
(0.0971053063 0.000753627866 0)
(0.0969392883 0.000600870808 0)
(0.0969854835 0.000742515327 0)
(0.0968257524 0.000588121862 0)
(0.0968677701 0.000728189952 0)
(0.0967151432 0.000572734816 0)
(0.0967527072 0.000710624211 0)
(0.0966079821 0.000554707669 0)
(0.0966408372 0.000689812245 0)
(0.0965047846 0.000534055478 0)
(0.096532699 0.000665770646 0)
(0.0964060551 0.00051081112 0)
(0.0964288235 0.000638539114 0)
(0.0963122821 0.000485026583 0)
(0.0963297281 0.000608180831 0)
(0.0962239352 0.00045677491 0)
(0.096235914 0.000574782722 0)
(0.0961414632 0.000426152441 0)
(0.0961478631 0.000538455623 0)
(0.0960652952 0.000393280596 0)
(0.0960660376 0.000499334183 0)
(0.0959958428 0.000358306049 0)
(0.0959908799 0.000457576032 0)
(0.0959335045 0.000321398417 0)
(0.0959228147 0.000413359887 0)
(0.0958786689 0.000282745679 0)
(0.0958622509 0.000366882135 0)
(0.0958317194 0.000242546694 0)
(0.0958095828 0.00031835223 0)
(0.0957930409 0.000201001084 0)
(0.0957651885 0.000267984636 0)
(0.0957630289 0.000158297929 0)
(0.0957294362 0.000215984224 0)
(0.0957420081 0.000114589719 0)
(0.0957026748 0.000162517831 0)
(0.0957301926 6.9942727e-05 0)
(0.0956851729 0.000107740985 0)
(0.0957274129 2.45079673e-05 0)
(0.0956770481 5.20556353e-05 0)
(0.0957326873 -2.10326307e-05 0)
(0.095678097 -4.16101048e-06 0)
(0.0957487438 -6.63364601e-05 0)
(0.0956888483 -6.06143908e-05 0)
(0.0957746943 -0.000111594328 0)
(0.0957099726 -0.00011693289 0)
(0.095810484 -0.000156663921 0)
(0.0957412614 -0.000173182439 0)
(0.0958559992 -0.000201269878 0)
(0.0957825522 -0.00022898311 0)
(0.0959110978 -0.000245154997 0)
(0.0958337759 -0.000284011745 0)
(0.0959755793 -0.000288067074 0)
(0.0958947953 -0.000337952787 0)
(0.0960491658 -0.000329740048 0)
(0.0959653694 -0.000390464157 0)
(0.0961315034 -0.000369898215 0)
(0.0960451826 -0.000441191105 0)
(0.0962221658 -0.000408259213 0)
(0.096133848 -0.000489775426 0)
(0.0963206568 -0.000444534866 0)
(0.0962309002 -0.000535856784 0)
(0.0964264176 -0.000478436374 0)
(0.096335799 -0.000579078048 0)
(0.0965388347 -0.000509684333 0)
(0.0964479389 -0.000619095097 0)
(0.0966572483 -0.000538020835 0)
(0.0965666577 -0.000655588032 0)
(0.0967809586 -0.000563221211 0)
(0.0966912422 -0.00068827221 0)
(0.0969092321 -0.000585103209 0)
(0.0968209364 -0.000716907997 0)
(0.0970413076 -0.00060353255 0)
(0.0969549478 -0.000741308198 0)
(0.097176403 -0.000618424905 0)
(0.0970924563 -0.00076134273 0)
(0.0973137242 -0.000629745333 0)
(0.0972326234 -0.000776940749 0)
(0.0974524753 -0.000637506364 0)
(0.0973746033 -0.000788090791 0)
(0.0975918691 -0.000641765488 0)
(0.0975175553 -0.000794839393 0)
(0.0977311385 -0.000642622272 0)
(0.0976606558 -0.000797288452 0)
(0.0978695469 -0.000640215063 0)
(0.09780311 -0.000795591467 0)
(0.098006397 -0.000634717074 0)
(0.0979441629 -0.000789948732 0)
(0.098141039 -0.000626331805 0)
(0.0980831083 -0.00078060157 0)
(0.0982728768 -0.000615287856 0)
(0.0982192961 -0.000767825795 0)
(0.0984013723 -0.000601833312 0)
(0.0983521386 -0.000751924629 0)
(0.0985260496 -0.000586229916 0)
(0.0984811142 -0.000733221348 0)
(0.098646496 -0.000568747323 0)
(0.0986057702 -0.000712051933 0)
(0.098762363 -0.000549657565 0)
(0.0987257232 -0.000688757995 0)
(0.0988733657 -0.000529230034 0)
(0.0988406592 -0.000663680176 0)
(0.0989792807 -0.00050772702 0)
(0.0989503313 -0.000637152256 0)
(0.0990799438 -0.000485399943 0)
(0.0990545571 -0.000609496037 0)
(0.0991752465 -0.00046248624 0)
(0.0991532151 -0.000581017088 0)
(0.0992651319 -0.000439206937 0)
(0.09924624 -0.00055200136 0)
(0.0993495903 -0.000415764803 0)
(0.0993336178 -0.000522712619 0)
(0.0994286545 -0.000392343087 0)
(0.0994153809 -0.000493390649 0)
(0.0995023948 -0.000369104889 0)
(0.0994916021 -0.000464250194 0)
(0.0995709142 -0.000346193052 0)
(0.0995623897 -0.000435480574 0)
(0.0996343437 -0.000323730513 0)
(0.0996278821 -0.000407245837 0)
(0.0996928363 -0.000301820926 0)
(0.0996882422 -0.000379685286 0)
(0.0997465617 -0.000280549046 0)
(0.0997436526 -0.000352913918 0)
(0.0997957043 -0.00025998104 0)
(0.0997943111 -0.000327021827 0)
(0.0998404704 -0.000240166761 0)
(0.0998404313 -0.000302074756 0)
(0.0998810796 -0.000221143036 0)
(0.0998822403 -0.000278121282 0)
(0.0999177582 -0.000202935802 0)
(0.0999199737 -0.000255196469 0)
(0.0999507353 -0.000185561549 0)
(0.09995387 -0.000233323606 0)
(0.0999802392 -0.000169028628 0)
(0.0999841675 -0.00021251554 0)
(0.100006496 -0.000153338618 0)
(0.100011101 -0.000192776031 0)
(0.100029727 -0.000138487834 0)
(0.100034901 -0.000174101096 0)
(0.100050147 -0.000124468736 0)
(0.100055791 -0.000156480237 0)
(0.10006796 -0.000111270925 0)
(0.100073983 -0.000139897447 0)
(0.100083362 -9.88815238e-05 0)
(0.100089682 -0.000124331966 0)
(0.100096536 -8.72848619e-05 0)
(0.10010308 -0.000109758676 0)
(0.100107651 -7.64614131e-05 0)
(0.100114358 -9.61478182e-05 0)
(0.100116862 -6.63859232e-05 0)
(0.100123684 -8.34642704e-05 0)
(0.100124315 -5.70261334e-05 0)
(0.100131215 -7.16708208e-05 0)
(0.100130146 -4.83429666e-05 0)
(0.100137099 -6.07256808e-05 0)
(0.100134482 -4.02912456e-05 0)
(0.100141474 -5.05813252e-05 0)
(0.100137452 -3.28207021e-05 0)
(0.100144474 -4.11862869e-05 0)
(0.100139183 -2.5877837e-05 0)
(0.10014623 -3.24878028e-05 0)
(0.100139812 -1.94099185e-05 0)
(0.100146874 -2.44358677e-05 0)
(0.100139497 -1.33718131e-05 0)
(0.100146543 -1.69892816e-05 0)
(0.100138424 -7.73834757e-06 0)
(0.100145386 -1.01261292e-05 0)
(0.100136847 -2.54819131e-06 0)
(0.100143527 -3.88423813e-06 0)
(0.100135124 2.04167261e-06 0)
(0.100141137 1.76130668e-06 0)
(0.100132243 6.01278901e-06 0)
(0.100138179 6.96889462e-06 0)
(0.100128546 9.56408589e-06 0)
(0.100134499 1.14464947e-05 0)
(0.100124204 1.28454385e-05 0)
(0.100130158 1.54704098e-05 0)
(0.10011936 1.59134105e-05 0)
(0.10012528 1.91384362e-05 0)
(0.100114135 1.8775623e-05 0)
(0.100119988 2.24908088e-05 0)
(0.10010862 2.14227438e-05 0)
(0.100114373 2.55461712e-05 0)
(0.100102884 2.38443893e-05 0)
(0.100108497 2.8318053e-05 0)
(0.100096974 2.60320733e-05 0)
(0.100102412 3.08163638e-05 0)
(0.100090922 2.79810156e-05 0)
(0.100096166 3.30474102e-05 0)
(0.100084751 2.96929875e-05 0)
(0.100089792 3.50182814e-05 0)
(0.10007848 3.11765877e-05 0)
(0.100083318 3.67391105e-05 0)
(0.100072124 3.24454405e-05 0)
(0.100076765 3.82227821e-05 0)
(0.100065697 3.35161786e-05 0)
(0.100070151 3.94842573e-05 0)
(0.100059216 3.44067855e-05 0)
(0.100063495 4.05398904e-05 0)
(0.100052698 3.51352766e-05 0)
(0.100056812 4.14066572e-05 0)
(0.10004616 3.57187254e-05 0)
(0.100050119 4.21013943e-05 0)
(0.100039619 3.61726472e-05 0)
(0.100043432 4.26401731e-05 0)
(0.100033093 3.6510692e-05 0)
(0.100036765 4.30378904e-05 0)
(0.100026598 3.67445542e-05 0)
(0.100030135 4.33080762e-05 0)
(0.100020149 3.68840501e-05 0)
(0.100023554 4.34627679e-05 0)
(0.100013759 3.69373337e-05 0)
(0.100017036 4.35125007e-05 0)
(0.100007441 3.69111795e-05 0)
(0.100010591 4.34664413e-05 0)
(0.100001205 3.68112894e-05 0)
(0.10000423 4.33325876e-05 0)
(0.0999950587 3.66426016e-05 0)
(0.0999979615 4.31179872e-05 0)
(0.0999890103 3.64095843e-05 0)
(0.0999917924 4.28289586e-05 0)
(0.0999830652 3.61164838e-05 0)
(0.0999857289 4.2471294e-05 0)
(0.0999772281 3.57675066e-05 0)
(0.0999797761 4.20504269e-05 0)
(0.0999715027 3.53669251e-05 0)
(0.0999739381 4.15715556e-05 0)
(0.0999658922 3.49191104e-05 0)
(0.0999682182 4.10397181e-05 0)
(0.0999603991 3.44285056e-05 0)
(0.0999626194 4.04598246e-05 0)
(0.0999550259 3.38995605e-05 0)
(0.0999571439 3.98366508e-05 0)
(0.0999497747 3.33366441e-05 0)
(0.0999517941 3.91747963e-05 0)
(0.0999446477 3.27439325e-05 0)
(0.0999465719 3.84786159e-05 0)
(0.0999396472 3.2125288e-05 0)
(0.0999414791 3.77521745e-05 0)
(0.0999347751 3.1484179e-05 0)
(0.0999365175 3.69992143e-05 0)
(0.0999300337 3.08236602e-05 0)
(0.0999316887 3.6223119e-05 0)
(0.0999254248 3.01463949e-05 0)
(0.0999269944 3.54268978e-05 0)
(0.0999209503 2.94546785e-05 0)
(0.0999224361 3.461319e-05 0)
(0.0999166119 2.87504769e-05 0)
(0.099918015 3.37842653e-05 0)
(0.0999124114 2.80353856e-05 0)
(0.0999137332 3.29420713e-05 0)
(0.0999083506 2.73109106e-05 0)
(0.0999095901 3.20880458e-05 0)
(0.0999044313 2.6577319e-05 0)
(0.0999055939 3.12237919e-05 0)
(0.0999006563 2.58383915e-05 0)
(0.0999017237 3.03477434e-05 0)
(0.099897029 2.50800474e-05 0)
(0.0998980602 2.94682224e-05 0)
(0.0998935574 2.43603582e-05 0)
(0.0998943445 2.85445541e-05 0)
(0.0998902469 2.34020193e-05 0)
(0.0998915207 2.77376908e-05 0)
(0.0998866235 2.62635657e-05 0)
(0.0999934838 4.49589232e-05 0)
(0.0999983772 2.69117618e-05 0)
(0.099974218 7.79641476e-05 0)
(0.0999857921 7.23784467e-05 0)
(0.0999465201 9.4264781e-05 0)
(0.099962077 0.000100941808 0)
(0.0999150013 9.33184682e-05 0)
(0.0999313871 0.000110126369 0)
(0.0998837914 7.72101526e-05 0)
(0.099899239 0.000101484934 0)
(0.0998563155 4.82783705e-05 0)
(0.0998696284 7.79821297e-05 0)
(0.0998351261 7.74765062e-06 0)
(0.0998452231 4.18457151e-05 0)
(0.0998233342 -4.21354599e-05 0)
(0.0998284696 -5.748346e-06 0)
(0.0998230672 -9.61322792e-05 0)
(0.0998220432 -6.12451228e-05 0)
(0.0998350395 -0.00014678928 0)
(0.0998277083 -0.000118426634 0)
(0.0998585804 -0.000185409985 0)
(0.0998455622 -0.000168661793 0)
(0.0998909847 -0.000203905829 0)
(0.0998739368 -0.000202164117 0)
(0.0999277426 -0.000197094478 0)
(0.0999091342 -0.000211072811 0)
(0.0999633264 -0.000164158786 0)
(0.0999459661 -0.000191753242 0)
(0.0999922135 -0.000108739831 0)
(0.0999787426 -0.000145706124 0)
(0.100009792 -3.796689e-05 0)
(0.100002309 -7.89181339e-05 0)
(0.100012132 3.87090449e-05 0)
(0.100012614 4.88974531e-07 0)
(0.0999997961 0.000112631564 0)
(0.100007975 8.18772362e-05 0)
(0.099972587 0.000177532067 0)
(0.0999886675 0.000157374196 0)
(0.0999332318 0.000228568621 0)
(0.0999561113 0.00022003722 0)
(0.0998853055 0.000262686529 0)
(0.0999132327 0.000265509575 0)
(0.0998326973 0.000278839278 0)
(0.0998636632 0.000291726077 0)
(0.0997792105 0.000277683742 0)
(0.0998111598 0.000298643091 0)
(0.0997282881 0.000261229836 0)
(0.0997592988 0.000287798051 0)
(0.0996829057 0.000232653637 0)
(0.0997112821 0.000261962755 0)
(0.0996454157 0.000196250814 0)
(0.0996698027 0.000225061707 0)
(0.0996173261 0.000157448699 0)
(0.0996368861 0.000182203089 0)
(0.0995990121 0.000122685608 0)
(0.0996136311 0.000139713469 0)
(0.099589436 9.89103617e-05 0)
(0.0995998757 0.000104884196 0)
(0.0995860149 9.25916798e-05 0)
(0.0995939195 8.51848515e-05 0)
(0.0995847536 0.000108387277 0)
(0.0995924659 8.69719638e-05 0)
(0.0995806784 0.000147864247 0)
(0.0995909104 0.000114017408 0)
(0.0995685893 0.000208768258 0)
(0.0995840037 0.000166286122 0)
(0.0995440141 0.00028521727 0)
(0.0995667624 0.000239465152 0)
(0.0995040829 0.00036888586 0)
(0.0995353995 0.000325625151 0)
(0.0994480454 0.000450893453 0)
(0.0994880278 0.000414943123 0)
(0.0993772599 0.000523840169 0)
(0.0994249285 0.000498005504 0)
(0.0992946544 0.000583351472 0)
(0.0993482835 0.000567974459 0)
(0.0992038369 0.000628650667 0)
(0.0992614476 0.000621915325 0)
(0.0991081499 0.000662033496 0)
(0.0991679954 0.000660873383 0)
(0.0990099691 0.000687529379 0)
(0.0990708581 0.000688761003 0)
(0.0989104316 0.000709315084 0)
(0.0989718121 0.000710568628 0)
(0.0988095982 0.000730470775 0)
(0.0988714249 0.000730628037 0)
(0.0987068927 0.000752438238 0)
(0.0987693799 0.000751535252 0)
(0.0986015935 0.000775190413 0)
(0.098664973 0.000773966551 0)
(0.0984931897 0.00079783498 0)
(0.0985575578 0.000797206942 0)
(0.0983815249 0.000819277843 0)
(0.0984467998 0.000819965356 0)
(0.0982667586 0.000838668318 0)
(0.098332719 0.000841059462 0)
(0.0981492397 0.000855538947 0)
(0.0982155919 0.000859748743 0)
(0.0980293825 0.000869717795 0)
(0.0980958163 0.000875728138 0)
(0.0979075963 0.000881158295 0)
(0.0979738105 0.000888939036 0)
(0.0977842712 0.000889804063 0)
(0.0978499753 0.000899369193 0)
(0.0976597962 0.000895534676 0)
(0.0977247007 0.000906939997 0)
(0.0975345829 0.000898177412 0)
(0.0975983912 0.000911491065 0)
(0.0974090796 0.000897545474 0)
(0.0974714846 0.000912819944 0)
(0.097283771 0.00089347076 0)
(0.097344459 0.000910729158 0)
(0.0971591719 0.0008858191 0)
(0.0972178273 0.000905054414 0)
(0.0970358181 0.000874491412 0)
(0.0970921289 0.00089567163 0)
(0.0969142589 0.000859419367 0)
(0.0969679207 0.000882492538 0)
(0.0967950518 0.000840561802 0)
(0.0968457714 0.00086545875 0)
(0.0966787575 0.000817903773 0)
(0.0967262552 0.000844538829 0)
(0.0965659357 0.0007914573 0)
(0.0966099483 0.000819728216 0)
(0.0964571404 0.000761262329 0)
(0.096497423 0.000791050097 0)
(0.0963529154 0.000727387004 0)
(0.0963892429 0.000758555801 0)
(0.0962537907 0.000689927101 0)
(0.0962859583 0.00072232439 0)
(0.0961602799 0.000649004741 0)
(0.0961881015 0.000682461806 0)
(0.0960728782 0.000604766553 0)
(0.0960961845 0.000639099968 0)
(0.0959920615 0.000557381507 0)
(0.0960106972 0.000592395877 0)
(0.0959182854 0.000507038429 0)
(0.0959321073 0.000542530335 0)
(0.0958519851 0.000453943256 0)
(0.0958608612 0.000489705655 0)
(0.0957935749 0.000398316126 0)
(0.0957973854 0.000434142351 0)
(0.0957434473 0.000340387297 0)
(0.0957420864 0.000376074917 0)
(0.0957019697 0.000280392761 0)
(0.0956953488 0.000315746703 0)
(0.095669469 0.00021856352 0)
(0.0956575346 0.000253409304 0)
(0.0956461974 0.000155108711 0)
(0.0956289681 0.00018931544 0)
(0.0956323384 9.02194807e-05 0)
(0.0956098968 0.000123699763 0)
(0.0956282437 2.41791837e-05 0)
(0.095600529 5.67707763e-05 0)
(0.0956342226 -4.23048318e-05 0)
(0.0956011157 -1.10458075e-05 0)
(0.0956503293 -0.000108772982 0)
(0.0956118846 -7.91615232e-05 0)
(0.0956767735 -0.000175188007 0)
(0.095633034 -0.000147383698 0)
(0.0957135027 -0.000241251682 0)
(0.0956646784 -0.000215476705 0)
(0.0957604864 -0.000306564115 0)
(0.0957067873 -0.000283085592 0)
(0.0958176169 -0.000370736403 0)
(0.0957592838 -0.000349798372 0)
(0.0958847041 -0.000433372689 0)
(0.0958220365 -0.000415204697 0)
(0.0959614832 -0.000494054859 0)
(0.0958948264 -0.000478876432 0)
(0.0960476086 -0.000552353831 0)
(0.0959773485 -0.000540365772 0)
(0.0961426507 -0.000607840756 0)
(0.0960692168 -0.000599217914 0)
(0.0962460995 -0.000660094374 0)
(0.0961699618 -0.000654979557 0)
(0.0963573693 -0.000708710116 0)
(0.0962790305 -0.000707206918 0)
(0.0964758059 -0.000753310828 0)
(0.0963957926 -0.000755476637 0)
(0.0966006934 -0.000793556835 0)
(0.0965195468 -0.000799397875 0)
(0.096731262 -0.000829154875 0)
(0.0966495283 -0.000838623931 0)
(0.0968666964 -0.000859865805 0)
(0.0967849163 -0.000872862692 0)
(0.0970061449 -0.000885510988 0)
(0.0969248447 -0.00090188523 0)
(0.0971487304 -0.000905976974 0)
(0.0970684134 -0.00092553208 0)
(0.0972935624 -0.000921218192 0)
(0.097214701 -0.000943716956 0)
(0.09743975 -0.000931257571 0)
(0.0973627791 -0.000956428008 0)
(0.0975864154 -0.000936185038 0)
(0.0975117266 -0.000963726841 0)
(0.097732707 -0.000936154023 0)
(0.0976606441 -0.00096574547 0)
(0.0978778115 -0.000931376294 0)
(0.0978086675 -0.000962681442 0)
(0.0980209643 -0.000922115417 0)
(0.09795498 -0.000954791384 0)
(0.098161459 -0.000908679205 0)
(0.0980988224 -0.000942383262 0)
(0.0982986538 -0.000891411463 0)
(0.0982395018 -0.000925807669 0)
(0.0984319772 -0.000870683364 0)
(0.0983763977 -0.000905448527 0)
(0.098560931 -0.000846884754 0)
(0.0985089663 -0.000881713548 0)
(0.0986850916 -0.000820415704 0)
(0.0986367427 -0.000855024834 0)
(0.0988041104 -0.000791678503 0)
(0.0987593411 -0.000825809909 0)
(0.0989177114 -0.000761070393 0)
(0.0988764536 -0.000794493465 0)
(0.099025689 -0.000728977131 0)
(0.0989878475 -0.000761490008 0)
(0.0991279035 -0.000695767523 0)
(0.0990933608 -0.000727197547 0)
(0.0992242767 -0.000661788945 0)
(0.0991928978 -0.000691992371 0)
(0.0993147867 -0.000627363931 0)
(0.099286423 -0.000656224977 0)
(0.0993994617 -0.00059278767 0)
(0.0993739553 -0.000620217067 0)
(0.0994783741 -0.00055832641 0)
(0.0994555614 -0.000584259542 0)
(0.0995516352 -0.000524216707 0)
(0.09953135 -0.000548611453 0)
(0.0996193887 -0.000490665296 0)
(0.0996014647 -0.000513499745 0)
(0.0996818054 -0.000457849473 0)
(0.0996660787 -0.000479119632 0)
(0.099739078 -0.000425917796 0)
(0.099725389 -0.000445635482 0)
(0.0997914161 -0.000394990589 0)
(0.099779611 -0.000413181992 0)
(0.0998390435 -0.000365160695 0)
(0.0998289748 -0.000381865578 0)
(0.0998821969 -0.000336496876 0)
(0.0998737219 -0.000351766535 0)
(0.0999211209 -0.000309048543 0)
(0.099914102 -0.00032294283 0)
(0.0999560637 -0.000282849067 0)
(0.0999503693 -0.000295433628 0)
(0.0999872734 -0.000257918073 0)
(0.0999827784 -0.000269262001 0)
(0.100014995 -0.000234263339 0)
(0.100011581 -0.000244437095 0)
(0.100039467 -0.000211882435 0)
(0.100037025 -0.000220956086 0)
(0.100060921 -0.000190764149 0)
(0.10005935 -0.000198806084 0)
(0.10007958 -0.000170889655 0)
(0.100078787 -0.000177966016 0)
(0.100095655 -0.000152233452 0)
(0.100095558 -0.000158408217 0)
(0.100109348 -0.000134764208 0)
(0.100109874 -0.000140099582 0)
(0.100120849 -0.000118445501 0)
(0.100121933 -0.000123002242 0)
(0.100130337 -0.000103236117 0)
(0.100131921 -0.000107073908 0)
(0.100137983 -8.90896257e-05 0)
(0.100140012 -9.22682133e-05 0)
(0.100143945 -7.59539963e-05 0)
(0.100146371 -7.85356412e-05 0)
(0.100148372 -6.37719177e-05 0)
(0.10015115 -6.58234292e-05 0)
(0.100151406 -5.24814922e-05 0)
(0.100154493 -5.4075928e-05 0)
(0.100153186 -4.20175249e-05 0)
(0.100156537 -4.32359697e-05 0)
(0.100153845 -3.23141241e-05 0)
(0.100157413 -3.3246783e-05 0)
(0.100153514 -2.33099891e-05 0)
(0.100157249 -2.40546322e-05 0)
(0.100152321 -1.49589456e-05 0)
(0.100156163 -1.56146026e-05 0)
(0.100150394 -7.25623211e-06 0)
(0.100154257 -7.90806039e-06 0)
(0.100147679 -2.39777947e-07 0)
(0.100151606 -7.57095352e-07 0)
(0.100144296 5.97685537e-06 0)
(0.100148292 5.65694341e-06 0)
(0.100140459 1.13949014e-05 0)
(0.100144414 1.13868181e-05 0)
(0.100136065 1.6191244e-05 0)
(0.100140017 1.65064516e-05 0)
(0.10013118 2.05020949e-05 0)
(0.100135116 2.1095795e-05 0)
(0.100125872 2.44034889e-05 0)
(0.100129766 2.52497847e-05 0)
(0.1001202 2.79385711e-05 0)
(0.100124052 2.90229894e-05 0)
(0.100114219 3.11364808e-05 0)
(0.100118049 3.24330797e-05 0)
(0.10010799 3.40207085e-05 0)
(0.100111811 3.54906352e-05 0)
(0.100101568 3.66086901e-05 0)
(0.100105386 3.82115328e-05 0)
(0.100094999 3.89126241e-05 0)
(0.100098812 4.06121228e-05 0)
(0.10008832 4.0943085e-05 0)
(0.100092123 4.27087093e-05 0)
(0.100081563 4.27115915e-05 0)
(0.100085347 4.45196401e-05 0)
(0.100074753 4.42314066e-05 0)
(0.100078508 4.60647274e-05 0)
(0.10006791 4.55174609e-05 0)
(0.100071625 4.7363945e-05 0)
(0.100061052 4.65858788e-05 0)
(0.100064718 4.84368981e-05 0)
(0.100054195 4.74533229e-05 0)
(0.100057804 4.9302661e-05 0)
(0.100047354 4.81363414e-05 0)
(0.100050899 4.99794828e-05 0)
(0.100040542 4.86508836e-05 0)
(0.100044017 5.04844375e-05 0)
(0.100033772 4.90120577e-05 0)
(0.100037174 5.08332949e-05 0)
(0.100027057 4.92339602e-05 0)
(0.100030384 5.10405532e-05 0)
(0.100020408 4.93294774e-05 0)
(0.100023658 5.11192284e-05 0)
(0.100013835 4.93102051e-05 0)
(0.100017007 5.10809352e-05 0)
(0.100007349 4.91865121e-05 0)
(0.100010442 5.09360326e-05 0)
(0.100000956 4.89676685e-05 0)
(0.100003972 5.06937589e-05 0)
(0.0999946649 4.86619937e-05 0)
(0.0999976033 5.03623873e-05 0)
(0.0999884813 4.8277007e-05 0)
(0.099991343 4.99494029e-05 0)
(0.0999824107 4.7819572e-05 0)
(0.0999851962 4.94616742e-05 0)
(0.0999764575 4.72960221e-05 0)
(0.0999791675 4.89055987e-05 0)
(0.0999706255 4.67122607e-05 0)
(0.0999732602 4.82872108e-05 0)
(0.0999649178 4.60738342e-05 0)
(0.0999674776 4.76122486e-05 0)
(0.099959337 4.53859762e-05 0)
(0.0999618219 4.68861848e-05 0)
(0.0999538854 4.46536251e-05 0)
(0.0999562954 4.61142407e-05 0)
(0.0999485649 4.38814259e-05 0)
(0.0999508998 4.53014245e-05 0)
(0.0999433772 4.30737305e-05 0)
(0.0999456369 4.44523878e-05 0)
(0.0999383236 4.22345893e-05 0)
(0.099940508 4.3571421e-05 0)
(0.0999334056 4.13677215e-05 0)
(0.0999355145 4.26624374e-05 0)
(0.0999286242 4.04764831e-05 0)
(0.0999306578 4.17289343e-05 0)
(0.0999239807 3.95638569e-05 0)
(0.099925939 4.07739991e-05 0)
(0.099919476 3.86324469e-05 0)
(0.0999213592 3.98003294e-05 0)
(0.0999151114 3.76844951e-05 0)
(0.0999169193 3.88102208e-05 0)
(0.0999108878 3.67217867e-05 0)
(0.0999126207 3.78056058e-05 0)
(0.0999068064 3.5745934e-05 0)
(0.0999084624 3.67878154e-05 0)
(0.0999028685 3.47569611e-05 0)
(0.0999044521 3.57583899e-05 0)
(0.0998990753 3.37587108e-05 0)
(0.0999005679 3.4715597e-05 0)
(0.0998954274 3.27345017e-05 0)
(0.0998968898 3.36689145e-05 0)
(0.0998919252 3.17537847e-05 0)
(0.099893156 3.25773651e-05 0)
(0.0998885456 3.04811344e-05 0)
(0.0998903138 3.1629399e-05 0)
(0.0998853815 2.99652471e-05 0)
(0.099992656 5.65626068e-05 0)
(0.0999983001 3.53685368e-05 0)
(0.0999734225 9.85318567e-05 0)
(0.0999854437 9.45260957e-05 0)
(0.0999462042 0.00012037648 0)
(0.0999614509 0.000132284076 0)
(0.0999154664 0.000121823255 0)
(0.099930339 0.00014552139 0)
(0.0998851658 0.000105461039 0)
(0.0998975511 0.00013637651 0)
(0.0998585951 7.41332466e-05 0)
(0.0998672216 0.000108578756 0)
(0.09983857 3.00724097e-05 0)
(0.0998423692 6.4904884e-05 0)
(0.0998270919 -2.40740902e-05 0)
(0.0998256974 7.46883455e-06 0)
(0.099826692 -8.38225691e-05 0)
(0.0998195329 -6.07846479e-05 0)
(0.099838168 -0.000141574348 0)
(0.099825684 -0.000131641359 0)
(0.0998607932 -0.000187290004 0)
(0.0998446609 -0.000194715046 0)
(0.0998918991 -0.000211399713 0)
(0.0998747226 -0.000237983081 0)
(0.0999271226 -0.000207588583 0)
(0.0999120126 -0.000251633134 0)
(0.0999611334 -0.000174528267 0)
(0.0999511475 -0.000230917255 0)
(0.0999885943 -0.000116054282 0)
(0.0999861954 -0.000177327741 0)
(0.100005068 -3.99641281e-05 0)
(0.100011748 -9.78879533e-05 0)
(0.100007964 4.43376299e-05 0)
(0.100024014 -2.8460685e-06 0)
(0.0999967217 0.000127200372 0)
(0.100020942 9.48232805e-05 0)
(0.0999719467 0.000200112645 0)
(0.100002393 0.000185902953 0)
(0.0999358043 0.000257180219 0)
(0.0999701835 0.000261655759 0)
(0.0998912667 0.000295006326 0)
(0.0999272745 0.000316795282 0)
(0.0998417816 0.000312441292 0)
(0.0998773218 0.000348708952 0)
(0.0997908879 0.000310207208 0)
(0.0998242011 0.00035724795 0)
(0.0997419101 0.000290499323 0)
(0.0997716654 0.00034419675 0)
(0.09969777 0.000256756285 0)
(0.0997231266 0.000312790722 0)
(0.0996608472 0.000213650912 0)
(0.0996814822 0.000267578914 0)
(0.0996327576 0.000167177058 0)
(0.0996489129 0.000214548607 0)
(0.0996140503 0.000124567354 0)
(0.0996266007 0.000161255225 0)
(0.0996038939 9.37557828e-05 0)
(0.0996143926 0.000116579487 0)
(0.09959988 8.22636036e-05 0)
(0.0996105327 8.98069064e-05 0)
(0.0995981096 9.5680955e-05 0)
(0.0996116211 8.90105703e-05 0)
(0.099593703 0.000136178182 0)
(0.0996129153 0.000119091666 0)
(0.0995816298 0.000201576545 0)
(0.0996089871 0.000180188599 0)
(0.0995575941 0.000285418686 0)
(0.0995946371 0.000267142692 0)
(0.099518792 0.000378199484 0)
(0.0995658591 0.000370306317 0)
(0.0994643675 0.000469505291 0)
(0.0995205843 0.000477613779 0)
(0.0993954236 0.000550444677 0)
(0.0994589741 0.000577395381 0)
(0.0993145668 0.000615598153 0)
(0.0993831636 0.000661082317 0)
(0.0992251164 0.000663850841 0)
(0.0992965308 0.000724918885 0)
(0.0991302349 0.000697879004 0)
(0.0992027309 0.000770130839 0)
(0.0990322546 0.000722579983 0)
(0.0991048089 0.000801586832 0)
(0.0989323831 0.000743123798 0)
(0.0990046597 0.000825572207 0)
(0.0988308117 0.000763375586 0)
(0.0989029477 0.000847589038 0)
(0.0987270964 0.000785172705 0)
(0.0987994154 0.0008709649 0)
(0.0986206087 0.000808500777 0)
(0.0986933757 0.000896588819 0)
(0.0985108781 0.000832237862 0)
(0.0985841672 0.00092356339 0)
(0.0983977461 0.000854995464 0)
(0.0984714225 0.000950238597 0)
(0.098281349 0.000875694125 0)
(0.0983551268 0.000975092483 0)
(0.0981620116 0.000893751096 0)
(0.0982355308 0.000997167545 0)
(0.0980401352 0.000908971989 0)
(0.0981130186 0.00101607073 0)
(0.0979161291 0.000921330699 0)
(0.0979880075 0.00103173394 0)
(0.0977903936 0.000930790963 0)
(0.0978609056 0.00104415548 0)
(0.0976633337 0.00093723218 0)
(0.0977321161 0.00105325141 0)
(0.0975353794 0.000940462104 0)
(0.0976020608 0.00105883243 0)
(0.0974069979 0.000940265642 0)
(0.0974711984 0.00106065312 0)
(0.0972786948 0.000936447555 0)
(0.0973400311 0.00105847211 0)
(0.0971510072 0.000928852553 0)
(0.0972090994 0.00105208869 0)
(0.0970244951 0.000917366805 0)
(0.0970789732 0.00104135223 0)
(0.0968997342 0.000901911954 0)
(0.0969502424 0.00102615658 0)
(0.0967773097 0.000882439883 0)
(0.0968235097 0.00100643247 0)
(0.0966578108 0.000858930732 0)
(0.0966993845 0.000982143587 0)
(0.096541826 0.000831393019 0)
(0.096578477 0.000953286513 0)
(0.096429937 0.000799864035 0)
(0.0964613931 0.000919891897 0)
(0.0963227138 0.000764409585 0)
(0.0963487289 0.000882024955 0)
(0.0962207089 0.000725123229 0)
(0.0962410656 0.000839784672 0)
(0.096124453 0.00068212552 0)
(0.0961389661 0.000793301859 0)
(0.096034453 0.000635563399 0)
(0.0960429718 0.000742736323 0)
(0.0959511909 0.0005856095 0)
(0.0959536014 0.000688273491 0)
(0.0958751254 0.000532460512 0)
(0.0958713492 0.000630120885 0)
(0.0958066946 0.00047633426 0)
(0.0957966851 0.000568504746 0)
(0.0957463177 0.000417465516 0)
(0.0957300542 0.000503667296 0)
(0.0956943954 0.000356101433 0)
(0.0956718769 0.00043586428 0)
(0.0956513071 0.000292498633 0)
(0.0956225483 0.000365363471 0)
(0.0956174086 0.00022691963 0)
(0.0955824366 0.00029244399 0)
(0.0955930264 0.00015964188 0)
(0.0955518825 0.000217391871 0)
(0.0955784214 9.09968955e-05 0)
(0.0955311959 0.000140517677 0)
(0.0955736902 2.13388992e-05 0)
(0.0955206201 6.22187985e-05 0)