/*--------------------------------*- C++ -*----------------------------------*\
| =========                 |                                                 |
| \\      /  F ield         | OpenFOAM: The Open Source CFD Toolbox           |
|  \\    /   O peration     | Version:  v2012                                 |
|   \\  /    A nd           | Website:  www.openfoam.com                      |
|    \\/     M anipulation  |                                                 |
\*---------------------------------------------------------------------------*/
FoamFile
{
    version     2.0;
    format      ascii;
    class       volVectorField;
    location    "2.14";
    object      HbyA;
}
// * * * * * * * * * * * * * * * * * * * * * * * * * * * * * * * * * * * * * //

dimensions      [0 1 -1 0 0 0 0];


internalField   nonuniform List<vector> 
28416
(
(0.0999982321 8.8799364e-06 0)
(0.0999876827 2.06750167e-05 0)
(0.0999712866 2.35125754e-05 0)
(0.0999536424 1.74233948e-05 0)
(0.0999392518 3.76737726e-06 0)
(0.0999296897 -1.68460964e-05 0)
(0.0999254896 -4.31111563e-05 0)
(0.0999291922 -7.29557606e-05 0)
(0.0999429275 -0.000103354255 0)
(0.0999668083 -0.000129562644 0)
(0.0999991418 -0.000146125801 0)
(0.100036587 -0.000148579354 0)
(0.100074654 -0.000134816526 0)
(0.100108552 -0.000105612617 0)
(0.100134011 -6.42537698e-05 0)
(0.100148538 -1.54642174e-05 0)
(0.100150789 3.51724203e-05 0)
(0.100140213 8.27804318e-05 0)
(0.100118416 0.000123354532 0)
(0.100088047 0.00015385571 0)
(0.100051696 0.000172633365 0)
(0.10001201 0.000179348501 0)
(0.099971551 0.000174805032 0)
(0.0999326138 0.0001608245 0)
(0.0998972127 0.00014010463 0)
(0.0998670101 0.000116051635 0)
(0.09984302 9.26303736e-05 0)
(0.0998252141 7.41553119e-05 0)
(0.0998122247 6.48727749e-05 0)
(0.0998012781 6.83180761e-05 0)
(0.0997885003 8.65907664e-05 0)
(0.0997695915 0.000119722447 0)
(0.0997406238 0.000165382683 0)
(0.0996987333 0.000219183131 0)
(0.0996425894 0.000275591356 0)
(0.0995725313 0.000329190887 0)
(0.0994903077 0.000375893265 0)
(0.0993984967 0.000413716358 0)
(0.0992997954 0.000442890767 0)
(0.0991964058 0.000465308446 0)
(0.0990896904 0.000483577075 0)
(0.0989801566 0.00050006964 0)
(0.0988677029 0.000516303948 0)
(0.0987519743 0.000532792661 0)
(0.0986326725 0.00054928291 0)
(0.0985097274 0.000565167854 0)
(0.0983833203 0.000579848903 0)
(0.0982538133 0.000592924728 0)
(0.0981216549 0.00060420476 0)
(0.0979873128 0.000613623209 0)
(0.0978512483 0.000621141298 0)
(0.0977139221 0.000626690185 0)
(0.0975758098 0.000630162095 0)
(0.0974374137 0.000631429661 0)
(0.0972992654 0.000630369649 0)
(0.0971619212 0.000626877659 0)
(0.0970259552 0.000620872267 0)
(0.0968919522 0.00061229328 0)
(0.0967605022 0.000601098924 0)
(0.0966321957 0.000587264246 0)
(0.0965076185 0.000570780751 0)
(0.0963873469 0.000551656616 0)
(0.0962719415 0.000529917082 0)
(0.0961619419 0.000505605218 0)
(0.0960578618 0.000478783402 0)
(0.0959601863 0.000449535595 0)
(0.0958693702 0.000417969908 0)
(0.0957858406 0.00038422042 0)
(0.0957100002 0.000348446974 0)
(0.0956422322 0.000310832245 0)
(0.0955829038 0.000271575802 0)
(0.0955323698 0.000230887679 0)
(0.0954909714 0.000188976166 0)
(0.0954590764 0.000146040955 0)
(0.0954370978 0.000102238727 0)
(0.0954251865 5.75710571e-05 0)
(0.0954226383 1.21161415e-05 0)
(0.0954296076 -3.31226781e-05 0)
(0.095447173 -7.81417156e-05 0)
(0.0954753219 -0.00012304006 0)
(0.0955136619 -0.000167590166 0)
(0.0955620555 -0.000211519866 0)
(0.0956203621 -0.000254594515 0)
(0.0956883046 -0.000296573331 0)
(0.0957655241 -0.000337198247 0)
(0.0958516068 -0.000376202894 0)
(0.095946072 -0.000413314654 0)
(0.0960483716 -0.000448255705 0)
(0.0961579014 -0.000480749801 0)
(0.0962740113 -0.00051053354 0)
(0.0963960122 -0.00053736896 0)
(0.0965231818 -0.000561054654 0)
(0.0966547696 -0.00058143353 0)
(0.0967900033 -0.000598396557 0)
(0.096928095 -0.000611883216 0)
(0.0970682507 -0.000621879951 0)
(0.0972096797 -0.000628417781 0)
(0.0973516054 -0.000631569646 0)
(0.0974932756 -0.000631447508 0)
(0.097633972 -0.000628199017 0)
(0.0977730184 -0.000622003574 0)
(0.0979097874 -0.000613067747 0)
(0.0980437059 -0.000601620161 0)
(0.0981742591 -0.00058790605 0)
(0.0983009929 -0.0005721817 0)
(0.0984235154 -0.000554709008 0)
(0.0985414969 -0.000535750373 0)
(0.0986546692 -0.000515564064 0)
(0.098762823 -0.000494400215 0)
(0.0988658059 -0.000472497457 0)
(0.0989635184 -0.000450080172 0)
(0.0990559103 -0.000427356358 0)
(0.099142976 -0.000404516053 0)
(0.0992247506 -0.000381730302 0)
(0.0993013051 -0.000359150734 0)
(0.0993727418 -0.000336909696 0)
(0.0994391901 -0.000315120845 0)
(0.0995008021 -0.000293880118 0)
(0.0995577481 -0.000273266903 0)
(0.0996102131 -0.000253345307 0)
(0.0996583927 -0.000234165459 0)
(0.0997024898 -0.000215764779 0)
(0.0997427111 -0.000198169148 0)
(0.0997792646 -0.000181393821 0)
(0.09981236 -0.000165444376 0)
(0.0998422083 -0.000150319091 0)
(0.09986902 -0.00013601142 0)
(0.0998930007 -0.000122511786 0)
(0.0999143483 -0.000109808527 0)
(0.0999332511 -9.78879604e-05 0)
(0.0999498863 -8.67337966e-05 0)
(0.0999644203 -7.63262664e-05 0)
(0.0999770085 -6.66413764e-05 0)
(0.0999877966 -5.76507805e-05 0)
(0.0999969221 -4.93223977e-05 0)
(0.100004514 -4.16214029e-05 0)
(0.100010692 -3.45109024e-05 0)
(0.100015567 -2.79511939e-05 0)
(0.100019242 -2.18965629e-05 0)
(0.100021817 -1.62945938e-05 0)
(0.100023409 -1.10889855e-05 0)
(0.100024164 -6.23434637e-06 0)
(0.100024298 -1.71612468e-06 0)
(0.10002388 2.37296083e-06 0)
(0.100022744 6.04949513e-06 0)
(0.100020845 9.45524655e-06 0)
(0.100018368 1.26774966e-05 0)
(0.100015501 1.57080351e-05 0)
(0.100012334 1.85191368e-05 0)
(0.100008913 2.10917331e-05 0)
(0.100005276 2.34113209e-05 0)
(0.100001444 2.54710918e-05 0)
(0.0999974294 2.72750354e-05 0)
(0.0999932437 2.88359803e-05 0)
(0.0999888987 3.01720695e-05 0)
(0.0999844096 3.13038871e-05 0)
(0.0999797936 3.22524263e-05 0)
(0.0999750694 3.30377031e-05 0)
(0.0999702566 3.36779196e-05 0)
(0.0999653748 3.41890778e-05 0)
(0.0999604429 3.45849061e-05 0)
(0.0999554786 3.48769641e-05 0)
(0.0999504985 3.50748413e-05 0)
(0.0999455172 3.51864387e-05 0)
(0.0999405477 3.52182881e-05 0)
(0.0999356011 3.51758865e-05 0)
(0.099930687 3.50640317e-05 0)
(0.0999258132 3.48871292e-05 0)
(0.0999209862 3.46494394e-05 0)
(0.0999162114 3.43552456e-05 0)
(0.0999114932 3.40089366e-05 0)
(0.0999068355 3.36150141e-05 0)
(0.0999022418 3.31780427e-05 0)
(0.0998977153 3.2702567e-05 0)
(0.0998932588 3.21930324e-05 0)
(0.0998888753 3.16536672e-05 0)
(0.0998845676 3.10883391e-05 0)
(0.0998803384 3.05004735e-05 0)
(0.0998761904 2.98930637e-05 0)
(0.0998721259 2.92687137e-05 0)
(0.0998681472 2.86296736e-05 0)
(0.0998642562 2.79778602e-05 0)
(0.0998604554 2.73149278e-05 0)
(0.0998567445 2.6642143e-05 0)
(0.0998531319 2.59611428e-05 0)
(0.0998495975 2.5270867e-05 0)
(0.0998462206 2.45803844e-05 0)
(0.0998427529 2.38529177e-05 0)
(0.0998401089 2.32395302e-05 0)
(0.0998354515 2.20581217e-05 0)
(0.0999985769 1.95433179e-05 0)
(0.0999884681 4.61680103e-05 0)
(0.0999707232 5.53247303e-05 0)
(0.0999498672 4.79223887e-05 0)
(0.0999306222 2.67141157e-05 0)
(0.0999161778 -6.6818487e-06 0)
(0.0999092742 -5.04456299e-05 0)
(0.0999124027 -0.00010144047 0)
(0.0999274566 -0.000154444458 0)
(0.099955135 -0.000201408986 0)
(0.0999939894 -0.00023311636 0)
(0.100040297 -0.000241921616 0)
(0.100088681 -0.000224021599 0)
(0.100133155 -0.000180405739 0)
(0.100168275 -0.000116358072 0)
(0.100190027 -3.98754283e-05 0)
(0.100196061 3.94601314e-05 0)
(0.100185781 0.000113465659 0)
(0.100160759 0.00017618926 0)
(0.100124261 0.000223348992 0)
(0.100080085 0.000252688235 0)
(0.100032046 0.000263902219 0)
(0.0999837903 0.000258241187 0)
(0.0999386013 0.000238195567 0)
(0.0998992282 0.000207377298 0)
(0.09986773 0.000170512667 0)
(0.0998452512 0.000133457031 0)
(0.0998316993 0.000103008332 0)
(0.0998254569 8.62465542e-05 0)
(0.0998233185 8.93454879e-05 0)
(0.0998207338 0.000116123337 0)
(0.099812371 0.000166827202 0)
(0.099792994 0.000237672218 0)
(0.0997584778 0.00032142554 0)
(0.0997066333 0.000408969091 0)
(0.0996375615 0.000491422103 0)
(0.0995534236 0.000562172783 0)
(0.0994576987 0.000618165649 0)
(0.0993541758 0.000660047407 0)
(0.0992460189 0.000691204239 0)
(0.0991351934 0.000716142402 0)
(0.0990223819 0.000738875227 0)
(0.0989073137 0.000761886466 0)
(0.0987892912 0.000785907589 0)
(0.098667671 0.000810364171 0)
(0.0985421428 0.000834109444 0)
(0.0984127802 0.000856058474 0)
(0.0982799369 0.000875509516 0)
(0.0981440995 0.00089215393 0)
(0.0980057772 0.000905913025 0)
(0.0978654583 0.000916758369 0)
(0.0977236168 0.000924607922 0)
(0.0975807379 0.000929309713 0)
(0.097437339 0.000930676201 0)
(0.0972939754 0.00092852626 0)
(0.0971512353 0.000922710767 0)
(0.0970097291 0.000913119273 0)
(0.0968700804 0.000899676329 0)
(0.0967329188 0.000882336329 0)
(0.0965988737 0.00086108102 0)
(0.09646857 0.000835919589 0)
(0.0963426221 0.000806889677 0)
(0.0962216292 0.000774057949 0)
(0.0961061706 0.0007375198 0)
(0.0959968023 0.000697398267 0)
(0.0958940542 0.000653842332 0)
(0.0957984295 0.000607024713 0)
(0.0957104033 0.000557139354 0)
(0.0956304225 0.000504398802 0)
(0.0955589053 0.000449031534 0)
(0.0954962426 0.000391279244 0)
(0.0954427952 0.00033139373 0)
(0.0953988937 0.000269632489 0)
(0.0953648506 0.000206253358 0)
(0.0953408546 0.000141467788 0)
(0.0953269803 7.54317956e-05 0)
(0.0953237405 8.45061152e-06 0)
(0.0953312759 -5.87468143e-05 0)
(0.0953493648 -0.000125793823 0)
(0.0953781951 -0.000192563037 0)
(0.0954177669 -0.000258706487 0)
(0.0954679436 -0.000323829739 0)
(0.0955285537 -0.000387564028 0)
(0.0955993505 -0.000449524037 0)
(0.0956799987 -0.000509301376 0)
(0.0957700854 -0.000566482126 0)
(0.0958691213 -0.000620656784 0)
(0.0959765408 -0.000671426887 0)
(0.0960917092 -0.00071841445 0)
(0.0962139309 -0.000761272377 0)
(0.0963424565 -0.000799693772 0)
(0.0964764904 -0.000833419892 0)
(0.0966151991 -0.00086224689 0)
(0.0967577199 -0.000886031188 0)
(0.0969031723 -0.000904693183 0)
(0.0970506692 -0.000918218973 0)
(0.0971993301 -0.000926660042 0)
(0.0973482932 -0.000930130974 0)
(0.097496728 -0.000928805379 0)
(0.0976438458 -0.00092291036 0)
(0.0977889095 -0.000912719839 0)
(0.0979312415 -0.000898547058 0)
(0.0980702291 -0.00088073656 0)
(0.0982053295 -0.000859655924 0)
(0.0983360712 -0.000835687551 0)
(0.0984620559 -0.000809220751 0)
(0.0985829568 -0.000780644373 0)
(0.0986985173 -0.000750340137 0)
(0.0988085478 -0.000718676835 0)
(0.0989129213 -0.000686005451 0)
(0.0990115691 -0.000652655235 0)
(0.0991044758 -0.000618930739 0)
(0.0991916729 -0.000585109762 0)
(0.0992732342 -0.000551442103 0)
(0.0993492698 -0.000518149087 0)
(0.0994199206 -0.000485423749 0)
(0.0994853537 -0.00045343156 0)
(0.0995457567 -0.000422311624 0)
(0.099601334 -0.000392178236 0)
(0.0996523018 -0.000363122659 0)
(0.0996988844 -0.000335215065 0)
(0.0997413113 -0.000308506526 0)
(0.0997798132 -0.000283030892 0)
(0.0998146207 -0.000258806354 0)
(0.099845962 -0.000235836968 0)
(0.0998740617 -0.000214115597 0)
(0.0998991389 -0.000193626518 0)
(0.0999214053 -0.000174347046 0)
(0.0999410643 -0.000156248572 0)
(0.0999583098 -0.000139297466 0)
(0.099973326 -0.000123456016 0)
(0.0999862869 -0.000108683212 0)
(0.0999973562 -9.49352221e-05 0)
(0.100006687 -8.21657322e-05 0)
(0.100014424 -7.03262993e-05 0)
(0.1000207 -5.93666726e-05 0)
(0.100025644 -4.92348328e-05 0)
(0.100029375 -3.98762094e-05 0)
(0.100032013 -3.12317685e-05 0)
(0.100033671 -2.32388397e-05 0)
(0.100034459 -1.58364309e-05 0)
(0.100034474 -8.98175848e-06 0)
(0.100033774 -2.67293901e-06 0)
(0.100032431 2.97576182e-06 0)
(0.100030548 8.00315557e-06 0)
(0.100028163 1.25284189e-05 0)
(0.10002529 1.66618577e-05 0)
(0.100021985 2.04551589e-05 0)
(0.100018324 2.39281647e-05 0)
(0.10001437 2.70915482e-05 0)
(0.100010171 2.995167e-05 0)
(0.100005773 3.25139903e-05 0)
(0.100001209 3.47864946e-05 0)
(0.0999965074 3.67811473e-05 0)
(0.0999916883 3.85134174e-05 0)
(0.0999867706 4.00009434e-05 0)
(0.0999817711 4.12623254e-05 0)
(0.0999767053 4.23162017e-05 0)
(0.0999715884 4.3180596e-05 0)
(0.0999664352 4.38725024e-05 0)
(0.0999612597 4.44077386e-05 0)
(0.0999560754 4.48008919e-05 0)
(0.0999508949 4.50651273e-05 0)
(0.0999457298 4.52121694e-05 0)
(0.0999405903 4.52524376e-05 0)
(0.0999354859 4.51952167e-05 0)
(0.0999304248 4.50488341e-05 0)
(0.0999254139 4.48208314e-05 0)
(0.0999204595 4.45181187e-05 0)
(0.0999155669 4.41471025e-05 0)
(0.0999107406 4.37137803e-05 0)
(0.0999059845 4.32237995e-05 0)
(0.0999013021 4.26824881e-05 0)
(0.0998966964 4.20948652e-05 0)
(0.0998921701 4.14656293e-05 0)
(0.0998877253 4.07991797e-05 0)
(0.0998833642 4.0099637e-05 0)
(0.0998790884 3.93708055e-05 0)
(0.0998748999 3.86161232e-05 0)
(0.0998708001 3.78386518e-05 0)
(0.0998667905 3.70410912e-05 0)
(0.0998628724 3.62257755e-05 0)
(0.0998590477 3.53947333e-05 0)
(0.0998553156 3.45494602e-05 0)
(0.0998516843 3.36918082e-05 0)
(0.0998481321 3.28201769e-05 0)
(0.0998447395 3.19445066e-05 0)
(0.0998412435 3.10231191e-05 0)
(0.0998385795 3.02291216e-05 0)
(0.0998337838 2.8784035e-05 0)
(0.0999984153 2.50626267e-05 0)
(0.0999881157 5.99029497e-05 0)
(0.0999708484 7.36269577e-05 0)
(0.0999508985 6.77464083e-05 0)
(0.0999326725 4.57451833e-05 0)
(0.099919096 1.02435476e-05 0)
(0.0999128552 -3.70022199e-05 0)
(0.0999165356 -9.37747187e-05 0)
(0.0999318171 -0.000154287783 0)
(0.0999591672 -0.000209262892 0)
(0.0999971139 -0.000248025275 0)
(0.100042108 -0.000261534454 0)
(0.100089053 -0.000245057224 0)
(0.100132258 -0.000199358878 0)
(0.100166486 -0.000130182075 0)
(0.100187607 -4.65872409e-05 0)
(0.100193638 4.13308931e-05 0)
(0.100185008 0.000124151323 0)
(0.100163204 0.000194390688 0)
(0.100130423 0.000247076266 0)
(0.100089808 0.000279723045 0)
(0.100044946 0.000292002869 0)
(0.0999993006 0.000285274805 0)
(0.099955994 0.000262198799 0)
(0.0999177185 0.000226594729 0)
(0.0998865962 0.000183543379 0)
(0.0998639342 0.000139516101 0)
(0.0998498757 0.000102201608 0)
(0.0998430461 7.9752874e-05 0)
(0.0998403849 7.94282275e-05 0)
(0.0998373848 0.000105935925 0)
(0.0998288011 0.000159998874 0)
(0.0998095895 0.000237685169 0)
(0.0997757978 0.000330910743 0)
(0.0997252543 0.000429137043 0)
(0.0996578901 0.000521832162 0)
(0.0995755643 0.000600946448 0)
(0.0994814216 0.000662591709 0)
(0.0993789851 0.000707370736 0)
(0.0992712857 0.00073931689 0)
(0.0991602958 0.000763950339 0)
(0.0990468053 0.000786268 0)
(0.0989306878 0.000809406155 0)
(0.0988113708 0.000834312581 0)
(0.098688285 0.000860276398 0)
(0.0985611418 0.00088584576 0)
(0.0984300011 0.000909639285 0)
(0.0982951923 0.000930767199 0)
(0.0981571835 0.000948852341 0)
(0.0980164796 0.000963822644 0)
(0.0978735775 0.000975676775 0)
(0.0977289676 0.000984345329 0)
(0.0975831555 0.000989665988 0)
(0.09743668 0.000991426273 0)
(0.0972901191 0.000989417787 0)
(0.0971440845 0.000983469784 0)
(0.0969992124 0.000973458036 0)
(0.0968561539 0.000959299878 0)
(0.0967155675 0.000940947028 0)
(0.0965781128 0.000918381641 0)
(0.096444445 0.000891615588 0)
(0.0963152085 0.000860690771 0)
(0.0961910313 0.00082567889 0)
(0.0960725189 0.000786680376 0)
(0.0959602487 0.000743823079 0)
(0.0958547658 0.000697261351 0)
(0.0957565813 0.000647175532 0)
(0.0956661724 0.000593771236 0)
(0.0955839858 0.00053727746 0)
(0.0955104412 0.000477942946 0)
(0.0954459344 0.000416031489 0)
(0.095390838 0.000351816102 0)
(0.0953454993 0.00028557714 0)
(0.0953102334 0.000217597969 0)
(0.0952853376 0.000148159288 0)
(0.0952710532 7.76157085e-05 0)
(0.0952672782 6.36530379e-06 0)
(0.0952741928 -6.54548278e-05 0)
(0.0952922014 -0.000137434986 0)
(0.0953213125 -0.000209196536 0)
(0.0953614711 -0.000280389629 0)
(0.0954125744 -0.00035061265 0)
(0.0954744674 -0.000419439323 0)
(0.0955469104 -0.000486431319 0)
(0.0956295723 -0.000551135956 0)
(0.0957220419 -0.000613091749 0)
(0.0958238286 -0.000671836801 0)
(0.0959343611 -0.000726916736 0)
(0.0960529895 -0.000777894753 0)
(0.0961789922 -0.000824364237 0)
(0.0963115822 -0.000865962155 0)
(0.0964499155 -0.000902381374 0)
(0.0965931015 -0.000933380643 0)
(0.0967402152 -0.00095879149 0)
(0.0968903105 -0.000978521959 0)
(0.0970424348 -0.000992557525 0)
(0.0971956434 -0.00100095972 0)
(0.0973490143 -0.00100386286 0)
(0.0975016617 -0.00100146904 0)
(0.0976527476 -0.000994041675 0)
(0.0978014933 -0.000981897543 0)
(0.0979471868 -0.000965397935 0)
(0.0980891903 -0.000944939039 0)
(0.0982269437 -0.000920942067 0)
(0.0983599672 -0.000893843489 0)
(0.0984878616 -0.000864085719 0)
(0.0986103066 -0.000832108526 0)
(0.0987270582 -0.000798341381 0)
(0.0988379446 -0.000763196898 0)
(0.0989428606 -0.000727065416 0)
(0.0990417625 -0.000690310731 0)
(0.0991346618 -0.000653266982 0)
(0.0992216184 -0.000616236586 0)
(0.0993027348 -0.000579489144 0)
(0.0993781495 -0.000543261241 0)
(0.0994480311 -0.000507757023 0)
(0.0995125724 -0.000473149365 0)
(0.0995719857 -0.000439581533 0)
(0.0996264971 -0.000407169188 0)
(0.099676343 -0.000376002553 0)
(0.0997217657 -0.000346148684 0)
(0.0997630103 -0.000317653699 0)
(0.0998003217 -0.000290544888 0)
(0.0998339425 -0.000264832711 0)
(0.0998641116 -0.000240512972 0)
(0.0998910633 -0.000217569526 0)
(0.0999150257 -0.00019597716 0)
(0.0999362193 -0.000175704177 0)
(0.0999548546 -0.00015671426 0)
(0.0999711307 -0.000138967453 0)
(0.0999852335 -0.000122420486 0)
(0.0999973367 -0.000107026858 0)
(0.100007602 -9.27369992e-05 0)
(0.100016179 -7.94987281e-05 0)
(0.100023211 -6.72579571e-05 0)
(0.100028828 -5.59594608e-05 0)
(0.100033155 -4.55476461e-05 0)
(0.100036311 -3.5967733e-05 0)
(0.100038407 -2.71681469e-05 0)
(0.100039547 -1.91027239e-05 0)
(0.100039825 -1.17322789e-05 0)
(0.100039318 -5.01908501e-06 0)
(0.100038059 1.09618639e-06 0)
(0.100036164 6.72615344e-06 0)
(0.100033731 1.18599968e-05 0)
(0.100030802 1.65084731e-05 0)
(0.100027482 2.07118925e-05 0)
(0.100023854 2.45048165e-05 0)
(0.100019961 2.79122315e-05 0)
(0.100015835 3.09576829e-05 0)
(0.100011505 3.36649172e-05 0)
(0.100006996 3.60558515e-05 0)
(0.100002328 3.81519471e-05 0)
(0.0999975202 3.9974839e-05 0)
(0.0999925913 4.15452755e-05 0)
(0.09998756 4.28826978e-05 0)
(0.0999824448 4.40058918e-05 0)
(0.0999772636 4.49330908e-05 0)
(0.0999720342 4.56816316e-05 0)
(0.0999667736 4.62676646e-05 0)
(0.0999614978 4.67058567e-05 0)
(0.0999562217 4.70092358e-05 0)
(0.0999509584 4.71894234e-05 0)
(0.0999457194 4.72568402e-05 0)
(0.0999405148 4.72208436e-05 0)
(0.0999353536 4.70898898e-05 0)
(0.0999302431 4.6871708e-05 0)
(0.0999251895 4.65734594e-05 0)
(0.0999201981 4.62018677e-05 0)
(0.0999152732 4.5763311e-05 0)
(0.0999104184 4.52638699e-05 0)
(0.0999056367 4.47093385e-05 0)
(0.0999009309 4.41052084e-05 0)
(0.0998963034 4.34566451e-05 0)
(0.0998917564 4.27684545e-05 0)
(0.0998872922 4.20450949e-05 0)
(0.0998829129 4.12907061e-05 0)
(0.0998786205 4.05090852e-05 0)
(0.0998744167 3.97036405e-05 0)
(0.0998703032 3.88773795e-05 0)
(0.0998662812 3.80329233e-05 0)
(0.099862352 3.71725027e-05 0)
(0.0998585171 3.62980133e-05 0)
(0.0998547754 3.54107811e-05 0)
(0.0998511345 3.45123586e-05 0)
(0.0998475728 3.36010617e-05 0)
(0.0998441684 3.26854637e-05 0)
(0.0998406679 3.172716e-05 0)
(0.0998379922 3.0889087e-05 0)
(0.0998332818 2.94051401e-05 0)
(0.0999984592 3.22324196e-05 0)
(0.0999878372 7.77121352e-05 0)
(0.0999693968 9.63675634e-05 0)
(0.0999475683 8.9680642e-05 0)
(0.0999273688 6.19996898e-05 0)
(0.0999126619 1.65411493e-05 0)
(0.099905903 -4.48195308e-05 0)
(0.0999094692 -0.000118639006 0)
(0.0999259249 -0.000197445062 0)
(0.0999560544 -0.000269457072 0)
(0.0999982992 -0.000320936104 0)
(0.100048792 -0.000340132988 0)
(0.100101888 -0.000320774206 0)
(0.100151213 -0.000263637805 0)
(0.100190845 -0.000175936145 0)
(0.100216491 -6.91473178e-05 0)
(0.100225647 4.3800286e-05 0)
(0.100217546 0.000150624902 0)
(0.100193762 0.00024134703 0)
(0.100157633 0.000309426963 0)
(0.100113088 0.000351696214 0)
(0.10006418 0.00036775074 0)
(0.100014883 0.000359323329 0)
(0.0999688703 0.000329816573 0)
(0.0999292962 0.000284102881 0)
(0.0998985586 0.000228636676 0)
(0.0998779968 0.000171636377 0)
(0.0998675466 0.000122904289 0)
(0.09986548 9.2907001e-05 0)
(0.0998683941 9.10380002e-05 0)
(0.099871485 0.000123429169 0)
(0.0998690826 0.000191049184 0)
(0.0998555217 0.000288868964 0)
(0.099826231 0.000406549842 0)
(0.0997786444 0.000530634592 0)
(0.0997126073 0.00064769361 0)
(0.0996301674 0.000747474232 0)
(0.0995348316 0.000825026647 0)
(0.0994305341 0.000881115681 0)
(0.0993206566 0.000920874559 0)
(0.0992073993 0.000951340199 0)
(0.0990916434 0.000978899415 0)
(0.0989732458 0.00100758095 0)
(0.0988515547 0.00103862501 0)
(0.0987259059 0.0010711452 0)
(0.0985959309 0.00110329141 0)
(0.0984616391 0.00113328644 0)
(0.0983233356 0.00115997153 0)
(0.0981814838 0.00118284271 0)
(0.0980365945 0.0012017925 0)
(0.0978891757 0.00121681251 0)
(0.0977397335 0.00122781423 0)
(0.097588794 0.00123459407 0)
(0.0974369222 0.00123688527 0)
(0.0972847278 0.00123442602 0)
(0.0971328598 0.0012270022 0)
(0.0969819955 0.00121445913 0)
(0.0968328294 0.00119669559 0)
(0.0966860642 0.00117365491 0)
(0.0965424034 0.00114532022 0)
(0.0964025441 0.00111171406 0)
(0.0962671708 0.00107289951 0)
(0.0961369491 0.00102898058 0)
(0.0960125216 0.00098010085 0)
(0.0958945049 0.000926440468 0)
(0.095783488 0.000868211649 0)
(0.0956800315 0.000805653111 0)
(0.0955846643 0.000739024406 0)
(0.0954978813 0.000668601204 0)
(0.095420139 0.00059467202 0)
(0.095351855 0.000517536539 0)
(0.0952934085 0.000437504829 0)
(0.0952451413 0.00035489589 0)
(0.0952073648 0.000270038635 0)
(0.0951803483 0.00018326999 0)
(0.0951643122 9.49168199e-05 0)
(0.095159547 5.34005633e-06 0)
(0.0951662217 -8.48405848e-05 0)
(0.0951843861 -0.000175232123 0)
(0.09521414 -0.000265390643 0)
(0.095255497 -0.000354829501 0)
(0.0953084061 -0.000443026029 0)
(0.095372742 -0.000529435038 0)
(0.0954482932 -0.000613492061 0)
(0.0955347547 -0.000694612423 0)
(0.0956317237 -0.000772200766 0)
(0.0957386985 -0.000845665448 0)
(0.0958550775 -0.000914432078 0)
(0.0959801635 -0.000977956846 0)
(0.0961131701 -0.00103574017 0)
(0.0962532314 -0.00108733981 0)
(0.0963994132 -0.00113238281 0)
(0.0965507263 -0.00117057603 0)
(0.0967061412 -0.00120171484 0)
(0.0968646044 -0.00122568921 0)
(0.0970250555 -0.00124248675 0)
(0.0971864449 -0.00125219228 0)
(0.0973477509 -0.0012549842 0)
(0.0975079959 -0.00125112799 0)
(0.0976662608 -0.00124096729 0)
(0.0978216972 -0.0012249132 0)
(0.0979735372 -0.00120343226 0)
(0.0981211003 -0.00117703385 0)
(0.0982637976 -0.00114625725 0)
(0.0984011338 -0.00111165904 0)
(0.0985327065 -0.00107380126 0)
(0.0986582038 -0.0010332405 0)
(0.0987773999 -0.00099051835 0)
(0.0988901492 -0.000946153285 0)
(0.0989963804 -0.000900634021 0)
(0.0990960886 -0.00085441444 0)
(0.0991893277 -0.000807909964 0)
(0.0992762026 -0.000761495296 0)
(0.0993568619 -0.000715503328 0)
(0.09943149 -0.000670225134 0)
(0.0995003005 -0.00062591084 0)
(0.0995635295 -0.000582771176 0)
(0.0996214304 -0.000540979633 0)
(0.0996742681 -0.000500675033 0)
(0.0997223145 -0.00046196435 0)
(0.0997658447 -0.000424925743 0)
(0.0998051336 -0.000389611694 0)
(0.0998404532 -0.000356052188 0)
(0.0998720699 -0.000324257914 0)
(0.0999002425 -0.000294223329 0)
(0.0999252198 -0.000265929353 0)
(0.0999472388 -0.000239345378 0)
(0.0999665241 -0.000214430736 0)
(0.0999832885 -0.000191136014 0)
(0.0999977338 -0.000169404629 0)
(0.100010051 -0.000149174678 0)
(0.100020423 -0.000130380712 0)
(0.100029017 -0.000112955067 0)
(0.100035995 -9.68287312e-05 0)
(0.100041502 -8.19319187e-05 0)
(0.100045676 -6.81945823e-05 0)
(0.100048644 -5.55469652e-05 0)
(0.100050522 -4.39201916e-05 0)
(0.100051419 -3.32467133e-05 0)
(0.100051434 -2.34601615e-05 0)
(0.100050667 -1.44952706e-05 0)
(0.100049238 -6.29263879e-06 0)
(0.100047292 1.15601601e-06 0)
(0.10004482 7.93767811e-06 0)
(0.100041808 1.40960412e-05 0)
(0.100038354 1.97006069e-05 0)
(0.100034497 2.47989371e-05 0)
(0.100030276 2.9423134e-05 0)
(0.100025755 3.36006344e-05 0)
(0.100020994 3.73540754e-05 0)
(0.100016043 4.0701584e-05 0)
(0.100010942 4.36618453e-05 0)
(0.100005724 4.62557499e-05 0)
(0.100000417 4.85054555e-05 0)
(0.0999950398 5.04346175e-05 0)
(0.0999896074 5.20683181e-05 0)
(0.0999841358 5.34316357e-05 0)
(0.0999786388 5.45486247e-05 0)
(0.0999731293 5.54418759e-05 0)
(0.0999676189 5.61322626e-05 0)
(0.0999621181 5.66387351e-05 0)
(0.0999566369 5.69782873e-05 0)
(0.0999511848 5.71662691e-05 0)
(0.0999457708 5.72166142e-05 0)
(0.0999404031 5.71419602e-05 0)
(0.0999350889 5.6953764e-05 0)
(0.0999298351 5.66624195e-05 0)
(0.0999246476 5.62773693e-05 0)
(0.0999195316 5.58072155e-05 0)
(0.0999144917 5.5259828e-05 0)
(0.0999095318 5.4642446e-05 0)
(0.0999046552 5.39617675e-05 0)
(0.0998998645 5.32240238e-05 0)
(0.099895162 5.24350316e-05 0)
(0.0998905495 5.16002374e-05 0)
(0.0998860285 5.07247026e-05 0)
(0.0998816002 4.98130531e-05 0)
(0.0998772656 4.88694726e-05 0)
(0.0998730255 4.78977302e-05 0)
(0.0998688805 4.69011962e-05 0)
(0.0998648315 4.58828483e-05 0)
(0.0998608787 4.48452527e-05 0)
(0.0998570231 4.37906295e-05 0)
(0.099853263 4.27205924e-05 0)
(0.0998496054 4.16371447e-05 0)
(0.099846027 4.05387422e-05 0)
(0.0998426077 3.94360632e-05 0)
(0.0998390772 3.82863958e-05 0)
(0.0998363854 3.72792907e-05 0)
(0.0998315031 3.55339015e-05 0)
(0.099998437 3.92445336e-05 0)
(0.0999878463 9.54281894e-05 0)
(0.0999695749 0.000120143384 0)
(0.0999479657 0.000115066042 0)
(0.0999278371 8.5105247e-05 0)
(0.0999125874 3.38782691e-05 0)
(0.0999055016 -3.65063819e-05 0)
(0.0999096747 -0.000122065144 0)
(0.0999269225 -0.000214309517 0)
(0.0999577694 -0.000299693569 0)
(0.100000709 -0.000362270745 0)
(0.100051928 -0.000388207547 0)
(0.100105876 -0.000369862172 0)
(0.100156279 -0.000307727576 0)
(0.100197295 -0.000209835023 0)
(0.100224383 -8.9322759e-05 0)
(0.100235046 3.85188474e-05 0)
(0.100229014 0.000159509337 0)
(0.100207746 0.000262574168 0)
(0.100174018 0.000340211624 0)
(0.100131511 0.00038856922 0)
(0.10008429 0.000407026243 0)
(0.100036378 0.000397446978 0)
(0.0999914836 0.000363547875 0)
(0.099952805 0.000310669088 0)
(0.0999228271 0.000245961126 0)
(0.0999030395 0.000178683224 0)
(0.099893591 0.000120077343 0)
(0.0998929516 8.23388351e-05 0)
(0.09989773 7.65989608e-05 0)
(0.0999029062 0.000110360247 0)
(0.0999026026 0.000185201031 0)
(0.0998911129 0.000295651296 0)
(0.0998638769 0.00042987112 0)
(0.0998182654 0.000572151496 0)
(0.0997539847 0.00070660691 0)
(0.0996729263 0.000820950148 0)
(0.0995784795 0.000909115348 0)
(0.0994745287 0.000971858922 0)
(0.0993644697 0.00101523333 0)
(0.0992505536 0.00104766654 0)
(0.0991337169 0.00107687944 0)
(0.0990138532 0.00110778747 0)
(0.0988903227 0.00114193735 0)
(0.0987624553 0.00117827955 0)
(0.0986298709 0.00121457029 0)
(0.0984925704 0.00124863796 0)
(0.0983508594 0.0012790597 0)
(0.0982052099 0.00130521616 0)
(0.0980561484 0.00132698059 0)
(0.097904204 0.00134435457 0)
(0.0977499083 0.00135724539 0)
(0.0975938177 0.00136541994 0)
(0.0974365325 0.00136856654 0)
(0.0972787026 0.00136637802 0)
(0.0971210212 0.00135860463 0)
(0.0969642136 0.001345069 0)
(0.0968090249 0.00132565915 0)
(0.0966562108 0.00130031742 0)
(0.0965065297 0.00126903416 0)
(0.0963607347 0.00123184605 0)
(0.0962195667 0.00118883586 0)
(0.0960837466 0.00114013072 0)
(0.0959539671 0.00108589852 0)
(0.0958308848 0.00102634327 0)
(0.0957151133 0.000961700729 0)
(0.0956072194 0.000892234891 0)
(0.0955077246 0.000818234947 0)
(0.0954171109 0.000740011903 0)
(0.0953358275 0.000657894403 0)
(0.0952642962 0.000572224422 0)
(0.0952029129 0.000483353426 0)
(0.0951520471 0.000391641419 0)
(0.0951120354 0.000297457479 0)
(0.0950831724 0.000201182032 0)
(0.0950657179 0.000103231348 0)
(0.0950598859 4.05268429e-06 0)
(0.0950658826 -9.59786455e-05 0)
(0.0950839153 -0.000196380497 0)
(0.0951141157 -0.000296657617 0)
(0.0951565277 -0.00039626959 0)
(0.095211115 -0.000494634456 0)
(0.095277766 -0.000591133718 0)
(0.0953562825 -0.000685117246 0)
(0.0954463682 -0.000775909939 0)
(0.0955476229 -0.000862821263 0)
(0.0956595386 -0.000945157707 0)
(0.0957814965 -0.00102223765 0)
(0.0959127674 -0.00109340859 0)
(0.0960525159 -0.00115806612 0)
(0.0961998087 -0.00121567295 0)
(0.0963536269 -0.00126577631 0)
(0.0965128818 -0.00130802221 0)
(0.0966764331 -0.00134216608 0)
(0.0968431103 -0.00136807945 0)
(0.0970117343 -0.00138575259 0)
(0.0971811393 -0.00139529326 0)
(0.0973501941 -0.00139692182 0)
(0.0975178214 -0.00139096286 0)
(0.0976830145 -0.00137783407 0)
(0.0978448517 -0.00135803263 0)
(0.0980025073 -0.00133212022 0)
(0.0981552589 -0.00130070699 0)
(0.0983024916 -0.00126443561 0)
(0.0984436992 -0.00122396566 0)
(0.0985784824 -0.00117995917 0)
(0.0987065449 -0.0011330676 0)
(0.0988276868 -0.00108392051 0)
(0.0989417976 -0.00103311621 0)
(0.0990488472 -0.000981214302 0)
(0.099148877 -0.000928730157 0)
(0.0992419903 -0.000876131213 0)
(0.0993283429 -0.000823834906 0)
(0.0994081344 -0.000772208016 0)
(0.0994815994 -0.000721567306 0)
(0.0995489995 -0.000672181184 0)
(0.0996106165 -0.000624272138 0)
(0.0996667456 -0.000578019791 0)
(0.0997176902 -0.000533564335 0)
(0.0997637564 -0.000491010144 0)
(0.0998052497 -0.000450429468 0)
(0.0998424705 -0.000411866025 0)
(0.099875712 -0.000375338358 0)
(0.099905258 -0.000340842899 0)
(0.0999313817 -0.000308356921 0)
(0.0999543462 -0.000277841631 0)
(0.0999744046 -0.000249245568 0)
(0.0999917988 -0.000222508116 0)
(0.100006758 -0.000197562557 0)
(0.100019494 -0.000174338132 0)
(0.100030206 -0.000152761123 0)
(0.100039072 -0.000132755371 0)
(0.100046259 -0.000114242795 0)
(0.100051921 -9.71441754e-05 0)
(0.100056198 -8.138009e-05 0)
(0.100059222 -6.68717962e-05 0)
(0.100061118 -5.35419892e-05 0)
(0.100061999 -4.13155501e-05 0)
(0.100061974 -3.01205284e-05 0)
(0.100061146 -1.98895514e-05 0)
(0.100059599 -1.056095e-05 0)
(0.100057344 -2.07803684e-06 0)
(0.100054449 5.65896857e-06 0)
(0.100051067 1.26163698e-05 0)
(0.100047279 1.88785984e-05 0)
(0.100043128 2.44978309e-05 0)
(0.100038679 2.9519363e-05 0)
(0.10003399 3.40000019e-05 0)
(0.100029094 3.79934385e-05 0)
(0.100024012 4.15452979e-05 0)
(0.100018768 4.46950754e-05 0)
(0.100013391 4.74757749e-05 0)