/*--------------------------------*- C++ -*----------------------------------*\
| =========                 |                                                 |
| \\      /  F ield         | OpenFOAM: The Open Source CFD Toolbox           |
|  \\    /   O peration     | Version:  v2012                                 |
|   \\  /    A nd           | Website:  www.openfoam.com                      |
|    \\/     M anipulation  |                                                 |
\*---------------------------------------------------------------------------*/
FoamFile
{
    version     2.0;
    format      ascii;
    class       volScalarField;
    location    "2.14";
    object      p;
}
// * * * * * * * * * * * * * * * * * * * * * * * * * * * * * * * * * * * * * //

dimensions      [0 2 -2 0 0 0 0];


internalField   nonuniform List<scalar> 
28416
(
0.00277381944
0.00277476805
0.00277690332
0.00278011685
0.00278431018
0.00278972852
0.00279577081
0.00280284486
0.00281100604
0.00282026208
0.00283060827
0.00284202168
0.00285446647
0.00286789441
0.00288224358
0.00289741311
0.00291329549
0.00292977372
0.00294696054
0.00296478784
0.00298319534
0.00300212659
0.0030215085
0.00304125784
0.00306128442
0.00308149001
0.00310177711
0.00312205651
0.00314224578
0.00316226326
0.0031820246
0.00320144002
0.00322040906
0.00323882102
0.00325655941
0.00327350571
0.0032895426
0.00330455693
0.00331844162
0.00333109642
0.00334242748
0.00335234656
0.00336077023
0.0033676197
0.00337282129
0.00337630729
0.00337801712
0.00337789828
0.00337590706
0.00337200901
0.00336617918
0.00335840232
0.00334867292
0.00333699531
0.00332338358
0.00330786143
0.00329046191
0.00327122707
0.00325020744
0.0032274615
0.00320305501
0.00317706027
0.00314955534
0.00312062321
0.00309035081
0.00305882818
0.00302614743
0.00299240183
0.00295768489
0.0029220895
0.00288570717
0.00284862745
0.00281093682
0.00277271709
0.00273404538
0.00269501629
0.0026557135
0.002616144
0.00257640701
0.00253652583
0.00249657855
0.00245661112
0.0024166548
0.00237674461
0.00233691299
0.00229718597
0.0022575852
0.00221812942
0.00217883462
0.00213971431
0.00210078019
0.00206204276
0.00202351177
0.00198519676
0.00194710737
0.00190925375
0.0018716468
0.00183429835
0.00179722129
0.00176042956
0.00172393816
0.001687763
0.0016519208
0.00161642884
0.00158130474
0.00154656624
0.00151223093
0.00147831601
0.00144483804
0.00141181275
0.00137925483
0.00134717776
0.00131559371
0.00128451341
0.00125394615
0.00122389967
0.00119438025
0.00116539269
0.00113694044
0.00110902565
0.00108164943
0.00105481206
0.00102851351
0.00100275425
0.000977532781
0.000952844143
0.000928680813
0.000905033511
0.000881891696
0.000859243851
0.000837077727
0.000815380566
0.000794139275
0.000773340629
0.000752971513
0.000733019265
0.000713472315
0.000694321628
0.000675559871
0.000657177145
0.000639156774
0.00062147002
0.000604076659
0.000586917103
0.000570040969
0.000553467165
0.000537181902
0.000521170159
0.000505427843
0.000489953475
0.000474742312
0.000459787315
0.000445080454
0.000430613031
0.000416375962
0.000402360144
0.000388556658
0.00037495682
0.000361552205
0.000348334646
0.000335296219
0.00032242922
0.000309726159
0.000297179748
0.000284782887
0.000272528656
0.0002604103
0.000248421214
0.000236554932
0.00022480512
0.00021316556
0.000201630148
0.000190192894
0.000178847911
0.00016758941
0.000156411697
0.000145309147
0.00013427621
0.000123307399
0.000112397293
0.000101540523
9.07317569e-05
7.99657134e-05
6.92370754e-05
5.85406807e-05
4.78707662e-05
3.72233265e-05
2.65874281e-05
1.59723196e-05
5.30091955e-06
0.0027695486
0.00277033284
0.00277238933
0.00277566718
0.00278000572
0.00278535088
0.00279186219
0.00279936561
0.00280786789
0.00281738631
0.00282792554
0.00283947233
0.00285199453
0.00286544528
0.00287976225
0.00289489398
0.0029108381
0.00292753733
0.00294491628
0.00296291098
0.00298145979
0.00300050438
0.00301997559
0.00303979745
0.00305989282
0.0030801823
0.00310058125
0.00312099989
0.00314134502
0.00316152128
0.00318143089
0.00320097228
0.00322004148
0.00323853203
0.00325633446
0.00327333755
0.00328943041
0.00330450431
0.00331845398
0.0033311784
0.00334258116
0.00335257073
0.00336106069
0.00336797014
0.00337322432
0.00337675523
0.00337850237
0.0033784134
0.0033764447
0.00337256185
0.00336673998
0.00335896402
0.00334922883
0.00333753924
0.00332390999
0.00330836552
0.00329093972
0.00327167553
0.00325062443
0.00322784587
0.00320340657
0.00317737978
0.00314984448
0.00312088448
0.00309058753
0.00305904442
0.00302634808
0.00299259262
0.00295787259
0.00292228199
0.00288591354
0.00284885791
0.00281120264
0.0027730322
0.00273442863
0.00269546455
0.0026562054
0.00261673891
0.0025771005
0.00253735304
0.00249754021
0.0024577112
0.00241790397
0.00237815005
0.00233847777
0.00229891085
0.00225946855
0.00222016673
0.00218101847
0.00214203447
0.00210322375
0.00206459424
0.00202615347
0.00198790901
0.00194986902
0.0019120426
0.00187444009
0.00183707328
0.0017999555
0.00176310163
0.001726528
0.00169025221
0.00165429296
0.00161866973
0.0015834025
0.00154851141
0.00151401649
0.00147993729
0.00144629264
0.00141310038
0.00138037711
0.00134813807
0.00131639694
0.00128516578
0.00125445493
0.00122427306
0.00119462711
0.00116552238
0.00113696263
0.00110895016
0.00108148599
0.00105457003
0.00102820125
0.00100237765
0.000977095567
0.000952349178
0.000928130757
0.000904431033
0.000881239531
0.000858544832
0.000836334827
0.000814596948
0.000793318362
0.000772486158
0.000752087509
0.000732109755
0.000712540242
0.000693365124
0.00067456913
0.00065613658
0.000638051554
0.00062029999
0.000602870889
0.000585760785
0.000568947124
0.000552425243
0.000536192963
0.000520241742
0.000504562513
0.000489147622
0.000473989805
0.000459081532
0.00044441522
0.000429983198
0.000415777548
0.000401790173
0.000388012923
0.000374437664
0.000361056345
0.00034786105
0.000334844025
0.000321997687
0.00030931464
0.000296787663
0.000284409701
0.000272173863
0.000260073409
0.000248101745
0.000236252415
0.000224519095
0.000212895581
0.000201375782
0.000189953727
0.000178623545
0.000167379469
0.000156215826
0.000145127023
0.00013410753
0.000123151885
0.00011225468
0.000101410562
9.06142176e-05
7.98603857e-05
6.91437749e-05
5.84592764e-05
4.78012104e-05
3.71658296e-05
2.65424938e-05
1.59420481e-05
5.28763591e-06
0.00276469731
0.00276556833
0.0027676825
0.00277099717
0.00277537136
0.00278076217
0.00278718606
0.00279470188
0.0028032777
0.00281290275
0.00282356532
0.00283524826
0.0028479222
0.00286154683
0.00287607685
0.00289146719
0.00290764079
0.00292453715
0.00294209858
0.00296030443
0.00297909665
0.00299840093
0.00301814587
0.0030382604
0.00305866563
0.00307927573
0.00310000006
0.0031207464
0.00314142372
0.00316194025
0.00318219981
0.00320210215
0.00322154127
0.00324040572
0.00325858153
0.0032759539
0.00329240871
0.0033078344
0.00332212344
0.00333517309
0.00334688554
0.00335716784
0.00336593197
0.00337309511
0.00337858032
0.00338231741
0.00338424381
0.00338430539
0.00338245712
0.00337866356
0.00337289913
0.00336514839
0.00335540612
0.00334367744
0.00332997764
0.00331433211
0.00329677599
0.00327735375
0.00325611875
0.00323313254
0.0032084642
0.00318218958
0.00315439042
0.00312515348
0.00309456958
0.00306273264
0.00302973864
0.00299568462
0.00296066771
0.00292478424
0.00288812895
0.00285079434
0.00281287002
0.00277444214
0.00273559266
0.00269640208
0.00265694824
0.00261727335
0.00257745846
0.00253755001
0.0024976002
0.00245765329
0.00241774608
0.00237790966
0.0023381709
0.00229855172
0.00225906931
0.00221973719
0.002180566
0.00214156404
0.00210273796
0.00206409352
0.00202563622
0.00198737192
0.00194930734
0.00191145048
0.00187381096
0.00183640021
0.00179923152
0.00176232007
0.00172568278
0.0016893381
0.00165330572
0.00161760629
0.00158226103
0.00154729135
0.00151271852
0.00147856328
0.00144484559
0.00141158425
0.00137879675
0.00134649903
0.00131470533
0.00128342812
0.00125267803
0.00122246385
0.00119279252
0.00116366924
0.00113509753
0.00110707931
0.0010796151
0.00105270405
0.00102634411
0.00100053191
0.00097526263
0.000950529862
0.000926325662
0.000902640786
0.000879464947
0.000856787016
0.000834595199
0.000812877193
0.000791620308
0.000770811602
0.000750437969
0.000730486172
0.000710942757
0.000691793874
0.000673025466
0.000654623719
0.000636575515
0.000618870423
0.00060150647
0.000584447941
0.000567682399
0.000551205528
0.000535012815
0.000519099014
0.000503457571
0.000488081387
0.000472962929
0.000458094438
0.000443468001
0.000429075463
0.000414908496
0.000400958747
0.000387217915
0.000373677803
0.000360330372
0.000347167767
0.000334182323
0.000321366532
0.000308713075
0.000296214803
0.000283864725
0.000271656007
0.000259581967
0.000247636061
0.00023581188
0.000224103144
0.000212503693
0.00020100748
0.000189608563
0.000178301092
0.000167079309
0.000155937538
0.000144870187
0.000133871741
0.000122936766
0.000112059887
0.000101235786
9.04591864e-05
7.97248689e-05
6.9027598e-05
5.83623308e-05
4.77234745e-05
3.71073132e-05
2.65032144e-05
1.59210926e-05
5.28321906e-06
0.00275824329
0.0027591058
0.00276124766
0.00276463206
0.00276910899
0.00277465152
0.00278134465
0.00278907599
0.00279786878
0.00280770258
0.00281856731
0.00283044106
0.00284329223
0.00285708346
0.0028717712
0.00288730621
0.00290365342
0.00292076215
0.00293859655
0.00295707801
0.00297614435
0.0029957373
0.00301578996
0.00303622649
0.00305696502
0.0030779202
0.00309900414
0.0031201258
0.00314118967
0.00316209618
0.00318274357
0.00320302583
0.00322283472
0.00324206059
0.00326059089
0.00327831126
0.00329510769
0.00331086822
0.00332548417
0.00333885076
0.00335086746
0.00336143818
0.00337047168
0.00337788219
0.00338359025
0.00338752357
0.00338961788
0.00338981763
0.00338807661
0.00338435846
0.00337863703
0.00337089666
0.00336113235
0.0033493498
0.00333556536
0.00331980581
0.00330210809
0.00328251879
0.00326109367
0.00323789698
0.00321300065
0.00318648354
0.00315843044
0.00312893114
0.00309807943
0.00306597214
0.00303270813
0.00299838749
0.00296311063
0.00292697734
0.00289008588
0.00285253203
0.0028144082
0.00277580275
0.0027367996
0.00269747679
0.0026579048
0.0026181555
0.00257828302
0.00253834448
0.00249838714
0.00245845267
0.00241857628
0.00237878727
0.00233910951
0.00229956178
0.00226015812
0.00222090865
0.00218182032
0.00214289771
0.00210414384
0.002065561
0.00202715155
0.00198891863
0.00195086678
0.00191300242
0.0018753342
0.00183787326
0.0018006332
0.00176363013
0.00172688238
0.00169041026
0.00165423568
0.00161838175
0.00158287229
0.00154773139
0.00151298295
0.00147865029
0.00144475574
0.00141132033
0.00137836349
0.00134590288
0.0013139542
0.00128253111
0.00125164515
0.00122130579
0.00119152042
0.00116229443
0.00113363134
0.00110553288
0.00107799912
0.0010510286
0.00102461841
0.000998764236
0.000973460348
0.000948699645
0.00092447369
0.000900772824
0.000877586312
0.000854902517
0.000832709121
0.000810993334
0.000789742065
0.000768942052
0.000748579952
0.000728642369
0.000709115869
0.000689987012
0.000671242435
0.000652868859
0.00063485209
0.000617172652
0.000599791623
0.000582750209
0.000566023872
0.000549598681
0.00053346374
0.000517610678
0.000502029672
0.00048671156
0.000471648301
0.000456832086
0.00044225509
0.000427909523
0.000413787465
0.000399880921
0.000386181889
0.000372682412
0.00035937464
0.000346250836
0.000333303386
0.000320524844
0.000307907907
0.000295445426
0.000283130415
0.000270956043
0.000258915629
0.000247002636
0.000235210666
0.000223533457
0.00021196487
0.000200498886
0.000189129597
0.00017785119
0.000166657942
0.000155544225
0.000144504486
0.000133533255
0.000122625132
0.00011177478
0.000100976917
9.02263067e-05
7.95177749e-05
6.8846135e-05
5.82064072e-05
4.75930615e-05
3.70025808e-05
2.64245e-05
1.58703826e-05
5.26253214e-06
0.00275030113
0.00275117692
0.00275334997
0.0027567868
0.00276133915
0.00276697
0.00277366906
0.00278152735
0.00279047292
0.0028004921
0.00281156327
0.00282366364
0.0028367643
0.00285082951
0.00286582008
0.00288169531
0.0028984093
0.00291590845
0.00293412958
0.00295301941
0.0029725163
0.00299255344
0.00301306056
0.00303396381
0.00305518542
0.00307664348
0.00309825162
0.00311991887
0.0031415503
0.00316304622
0.00318429998
0.00320520184
0.00322563823
0.00324549216
0.00326464612
0.0032829828
0.00330038555
0.00331673955
0.00333193286
0.00334585704
0.00335840752
0.00336948392
0.0033789906
0.0033868375
0.0033929411
0.00339722541
0.00339962285
0.00340007505
0.0033985335
0.00339496007
0.0033893274
0.00338161924
0.00337183057
0.00335996772
0.00334604827
0.00333010084
0.00331216474
0.00329228953
0.00327053437
0.00324696736
0.00322166471
0.00319470984
0.00316619249
0.00313620771
0.00310485483
0.00307223638
0.00303845693
0.00300362185
0.0029678362
0.00293120369
0.00289382594
0.00285580176
0.00281722655
0.00277819173
0.00273878395
0.00269908387
0.00265916545
0.00261910076
0.00257894882
0.00253876327
0.00249859321
0.00245848059
0.00241845951
0.00237855687
0.00233879337
0.00229918406
0.00225973888
0.00222046354
0.0021813604
0.00214242948
0.00210366936
0.00206507817
0.0020266545
0.00198839826
0.00195031135
0.00191239824
0.00187466635
0.00183712627
0.0017997918
0.00176267981
0.00172581002
0.00168920453
0.00165288745
0.00161688427
0.00158122134
0.00154592532
0.0015110226
0.00147653885
0.00144249854
0.0014089246
0.00137583809
0.00134325799
0.00131120103
0.0012796816
0.00124871169
0.00121830097
0.00118845679
0.00115918428
0.00113048653
0.00110236464
0.00107481791
0.00104784397
0.00102143892
0.000995597345
0.00097031242
0.000945575974
0.000921378598
0.00089770986
0.00087455853
0.000851912747
0.00082976013
0.000808087852
0.00078688269
0.000766131113
0.000745819365
0.000725933505
0.000706459409
0.000687382659
0.000668688269
0.000650360319
0.000632382912
0.000614745847
0.000597513009
0.000580569962
0.000563923449
0.000547570492
0.000531504745
0.000515718477
0.000500204274
0.000484954316
0.000469959935
0.000455212307
0.000440702768
0.000426422883
0.000412364391
0.000398519155
0.000384879197
0.000371436665
0.000358183817
0.000345113043
0.000332216871
0.000319487971
0.000306919158
0.000294503395
0.0002822338
0.000270103641
0.00025810633
0.000246235414
0.000234484568
0.000222847593
0.000211318401
0.000199891015
0.000188559564
0.000177318272
0.000166161456
0.000155083529
0.000144078981
0.000133142382
0.000122268377
0.000111451672
0.000100687034
8.99692773e-05
7.92932813e-05
6.8653917e-05
5.80462617e-05
4.74648494e-05
3.69061252e-05
2.63595366e-05
1.58352088e-05
5.25453987e-06
0.00274084789
0.00274174805
0.00274397758
0.00274750418
0.0027521747
0.00275795567
0.00276488721
0.00277292665
0.00278208266
0.0027923269
0.00280364074
0.00281600013
0.00282937449
0.00284372944
0.00285902802
0.00287523006
0.00289228623
0.00291014682
0.00292875858
0.00294807132
0.00296802497
0.00298855222
0.00300958267
0.0030310419
0.00305285073
0.00307492492
0.00309717484
0.00311950516
0.00314181429
0.00316399593
0.00318594284
0.00320754258
0.00322867987
0.00324923722
0.00326909362
0.00328812665
0.00330621479
0.00332323878
0.0033390825
0.00335363343
0.00336678279
0.00337842576
0.00338846208
0.00339679702
0.00340334247
0.00340801815
0.00341075265
0.00341148431
0.00341016185
0.00340674504
0.00340120507
0.00339352495
0.00338369968
0.00337173636
0.00335765409
0.00334148376
0.00332326767
0.00330305907
0.00328092142
0.00325692773
0.00323115954
0.00320370603
0.00317466285
0.00314413095
0.00311221535
0.00307902402
0.00304466675
0.00300925425
0.00297289726
0.00293570557
0.00289778689
0.0028592458
0.00282018271
0.0027806929
0.0027408658
0.00270078524
0.00266052938
0.00262016815
0.00257976186
0.00253936542
0.0024990256
0.00245878142
0.00241866439
0.00237869867
0.00233890158
0.00229928405
0.00225985133
0.00222060387
0.00218153845
0.0021426493
0.00210392928
0.00206537108
0.00202696834
0.00198871668
0.00195061455
0.00191266386
0.00187487049
0.00183724448
0.00179980001
0.00176255522
0.00172553181
0.00168875452
0.00165225051
0.00161604864
0.00158017881
0.0015446712
0.00150955565
0.00147486107
0.00144061488
0.00140684264
0.00137356765
0.00134081075
0.00130859015
0.00127692132
0.00124581703
0.00121528734
0.00118533971
0.00115597913
0.00112720826
0.00109902761
0.00107143571
0.00104442924
0.00101800326
0.000992151305
0.000966865591
0.000942137191
0.000917956135
0.000894311485
0.000871191392
0.000848583176
0.000826473507
0.000804848635
0.000783694578
0.00076299727
0.000742742652
0.000722916722
0.000703505631
0.000684495871
0.000665874632
0.00064763029
0.000629750959
0.000612212915
0.000594967609
0.000578066647
0.000561483452
0.000545202271
0.000529211981
0.000513502248
0.000498063526
0.000482886985
0.000467964233
0.000453286844
0.000438846442
0.0004246346
0.000410642991
0.000396863437
0.000383287904
0.000369908489
0.00035671743
0.000343707119
0.000330870096
0.000318199052
0.000305686834
0.000293326435
0.000281110997
0.000269033809
0.000257088303
0.000245268051
0.000233566759
0.000221978269
0.000210496545
0.000199115669
0.000187829831
0.000176633324
0.00016552053
0.000154485921
0.000143524045
0.000132629528
0.000121797063
0.000111021411
0.000100297388
8.96198611e-05
7.89837651e-05
6.83840267e-05
5.78157879e-05
4.72736432e-05
3.67542055e-05
2.62470925e-05
1.5764007e-05
5.22691453e-06
0.00272985164
0.00273077373
0.00273305264
0.00273665621
0.00274143075
0.00274734129
0.00275441077
0.00276264831
0.00277202444
0.00278251868
0.00279411056
0.00280677627
0.00282048624
0.0028352063
0.00285089857
0.00286752075
0.00288503132
0.00290338666
0.00292253681
0.00294241646
0.00296296007
0.00298410336
0.00300577775
0.00302790873
0.00305041677
0.00307321744
0.00309622129
0.0031193336
0.00314245506
0.0031654808
0.00318829594
0.0032107809
0.0032328119
0.00325426297
0.00327500831
0.00329492202
0.00331387867
0.00333175453
0.0033484285
0.00336378245
0.00337770138
0.00339007386
0.00340079292
0.00340975722
0.00341687253
0.00342205299
0.00342522227
0.00342631444
0.0034252747
0.00342206009
0.00341663989
0.00340899612
0.00339912372
0.00338703069
0.00337273802
0.00335627939
0.00333770083
0.00331706008
0.00329442587
0.00326987703
0.00324350148
0.00321539518
0.00318566095
0.00315440734
0.00312174747
0.00308779774
0.00305267657
0.00301650297
0.0029793952
0.00294146956
0.00290283937
0.00286361419
0.00282389906
0.00278379387
0.0027433929
0.00270278434
0.00266204792
0.00262125002
0.00258045527
0.00253972282
0.00249910071
0.00245862568
0.00241832665
0.00237822432
0.00233833141
0.00229865331
0.00225918909
0.00221993254
0.00218087344
0.00214199887
0.00210329474
0.00206474711
0.00202634366
0.00198807487
0.00194993505
0.00191192315
0.00187404329
0.00183630491
0.00179872278
0.00176131666
0.00172411075
0.00168713301
0.00165041431
0.00161398756
0.00157788681
0.00154214638
0.00150680006
0.00147188038
0.00143741803
0.00140344136
0.00136997603
0.00133704471
0.00130466698
0.00127285925
0.00124163475
0.00121100367
0.00118097325
0.001151548
0.00112272985
0.0010945184
0.00106691114
0.00103990363
0.00101348975
0.000987661839
0.000962410807
0.0009377263
0.000913596821
0.000890009956
0.000866952641
0.00084441137
0.000822372336
0.000800821498
0.000779744589
0.000759127172
0.000738954723
0.000719212703
0.000699886619
0.000680962018
0.000662424326
0.000644258578
0.000626450259
0.000609008665
0.000591887211
0.000575087887
0.000558600804
0.000542415139
0.000526520071
0.000510905697
0.000495562089
0.00048047954
0.000465648925
0.000451061523
0.000436708694
0.000422581947
0.000408673002
0.000394973748
0.000381476208
0.000368172552
0.000355055101
0.000342116328
0.000329348861
0.000316745478
0.000304299117
0.00029200287
0.000279849981
0.000267833845
0.000255947995
0.000244186099
0.000232541945
0.000221009448
0.000209582626
0.000198255611
0.000187022637
0.000175878036
0.000164816238
0.000153831762
0.000142919212
0.000132073267
0.000121288685
0.000110560287
9.98829559e-05
8.92516234e-05
7.86612907e-05
6.81069522e-05
5.75838139e-05
4.70865367e-05
3.66117195e-05
2.61489151e-05
1.57086324e-05
5.21182179e-06
0.00271727341
0.0027182206
0.00272055926
0.00272425788
0.00272915963
0.00273522842
0.00274248758
0.00275093744
0.00276055933
0.00277132974
0.00278322723
0.00279622765
0.00281030165
0.00282541604
0.00284153552
0.00285862329
0.00287663508
0.00289553091
0.00291524375
0.00293572387
0.00295691467
0.00297874948
0.00300115677
0.00302406186
0.0030473859
0.00307104476
0.00309494803
0.00311899771
0.00314308655
0.00316709914
0.00319091918
0.00321442345
0.00323748645
0.00325997825
0.00328176544
0.00330271429
0.00332269237
0.00334156956
0.00335921842
0.00337551425
0.00339033521
0.00340356261
0.00341508196
0.00342478444
0.00343256856
0.00343834172
0.00344202151
0.00344353673
0.00344282822
0.00343984957
0.00343456771
0.00342696337
0.00341703137
0.00340478078
0.0033902348
0.00337343048
0.00335441832
0.00333326156
0.00331003543
0.00328482614
0.00325772979
0.00322885115
0.00319830228
0.00316620112
0.00313267
0.00309783415
0.00306182035
0.0030247557
0.00298676646
0.00294797692
0.0029085083
0.00286847765
0.00282799691
0.0027871719
0.00274610144
0.00270487645
0.00266357995
0.00262228802
0.0025810654
0.00253996777
0.00249904121
0.00245832204
0.00241783664
0.0023776018
0.00233762512
0.00229790575
0.00225843547
0.00221919993
0.00218018016
0.00214135426
0.00210269922
0.00206419267
0.00202581461
0.00198754895
0.00194938478
0.00191131735
0.00187334863
0.00183548751
0.0017977497
0.00176015721
0.00172273762
0.00168552311
0.0016485494
0.00161185458
0.00157547798
0.0015394591
0.00150383661
0.00146864749
0.0014339264
0.00139970504
0.0013660118
0.00133287149
0.00130030526
0.00126833048
0.00123696091
0.0012062068
0.00117607506
0.00114656956
0.00111769131
0.00108943879
0.00106180816
0.00103479354
0.00100838726
0.0009825801
0.000957361517
0.00093271994
0.000908642922
0.000885117286
0.000862129209
0.000839664294
0.000817707688
0.000796244246
0.000775258688
0.000754735746
0.000734660256
0.000715017207
0.000695791793
0.000676969502
0.00065853629
0.000640479014
0.000622786312
0.000605435169
0.000588418745
0.000571724724
0.000555342285
0.000539260351
0.000523467903
0.000507954387
0.00049271004
0.000477725636
0.000462992086
0.000448500369
0.000434241651
0.000420207333
0.00040638901
0.000392778465
0.000379367678
0.000366148808
0.000353114192
0.00034025634
0.000327567925
0.000315041779
0.000302670893
0.000290448406
0.000278367603
0.000266421919
0.000254604926
0.000242910336
0.000231331997
0.000219863888
0.00020850011
0.000197234879
0.000186062522
0.000174977462
0.000163974211
0.000153047369
0.000142191614
0.000131401696
0.000120672434
0.000109998713
9.93754775e-05
8.87977214e-05
7.82605079e-05
6.77588937e-05
5.72881494e-05
4.68429942e-05
3.64201438e-05
2.60092803e-05
1.56219991e-05
5.18004988e-06
0.00270307425
0.00270404896
0.00270645128
0.00271024909
0.00271528249
0.00272151485
0.00272897214
0.0027376572
0.00274754799
0.00275862192
0.0027708592
0.00278423691
0.00279872677
0.00281429678
0.00283091226
0.00284853515
0.00286712579
0.00288662882
0.00290700566
0.00292819718
0.00295014074
0.00297277167
0.00299602143
0.00301981593
0.00304407503
0.00306871204
0.00309363341
0.00311873911
0.00314392241
0.00316906946
0.00319405424
0.00321875088
0.00324302114
0.00326672567
0.0032897256
0.00331188109
0.00333305274
0.00335310304
0.00337189685
0.00338930136
0.00340518596
0.00341942282
0.00343188806
0.00344246358
0.00345103901
0.0034575136
0.00346179762
0.0034638135
0.00346349679
0.0034607969
0.00345567783
0.00344811868
0.00343811405
0.00342567418
0.00341082487
0.00339360718
0.00337407694
0.00335230394
0.00332837108
0.00330237316
0.00327441567
0.0032446133
0.00321308856
0.00317997016
0.00314539154
0.00310948927
0.00307240151
0.00303426642
0.00299522075
0.0029553984
0.00291492933
0.00287393847
0.00283254479
0.00279086043
0.00274898996
0.00270702975
0.00266506721
0.00262318087
0.00258143805
0.00253989442
0.00249859647
0.00245757937
0.00241686641
0.00237646973
0.00233639081
0.00229662128
0.00225714409
0.00221793497
0.0021789643
0.00214019918
0.00210160565
0.00206315094
0.00202480564
0.00198654563
0.00194835369
0.00191022062
0.00187214602
0.00183413838
0.00179621486
0.0017584006
0.00172072761
0.00168323358
0.00164596037
0.00160895258
0.00157225607
0.00153591662
0.00149997877
0.00146448477
0.00142947379
0.00139498134
0.00136103878
0.00132767319
0.00129490717
0.00126275899
0.00123124263
0.0012003681
0.00117014164
0.00114056609
0.00111164117
0.00108336387
0.00105572878
0.00102872837
0.00100235334
0.000976592875
0.000951434802
0.000926865851
0.00090287181
0.000879437752
0.000856548261
0.000834187619
0.000812339958
0.000790989362
0.000770119921
0.000749715784
0.000729761228
0.000710240725
0.00069113902
0.000672441199
0.000654132728
0.000636199416
0.000618627501
0.000601401092
0.000584508443
0.00056793799
0.000551677942
0.000535717035
0.000520044647
0.000504650416
0.000489524014
0.000474655396
0.000460035055
0.000445653923
0.000431503203
0.000417574305
0.000403858846
0.000390348649
0.000377035733
0.000363912297
0.000350970725
0.000338203577
0.000325603589
0.000313163664
0.000300876871
0.000288736443
0.000276735768
0.000264868386
0.000253127977
0.000241508354
0.000230003455
0.000218607338
0.000207314169
0.000196118222
0.000185013879
0.000173995617
0.000163058009
0.000152195718
0.000141403492
0.000130676155
0.000120008606
0.000109395807
9.88327832e-05
8.8314607e-05
7.78364203e-05
6.73933571e-05
5.69807622e-05
4.65934325e-05
3.62281177e-05
2.58745171e-05
1.55435253e-05
5.15617044e-06
0.00268721017
0.00268821425
0.00269068486
0.00269458964
0.00269976576
0.00270617643
0.00271384882
0.00272278629
0.00273296778
0.00274437111
0.00275697703
0.00277076333
0.00278570256
0.00280176356
0.00281891289
0.00283711462
0.00285632744
0.00287651972
0.00289762637
0.00291959693
0.00294237376
0.00296589262
0.00299008395
0.00301487294
0.00304017943
0.00306591751
0.0030919945
0.00311830907
0.00314474842
0.00317118959
0.00319750436
0.00322355621
0.00324920182
0.00327429626
0.00329869053
0.0033222347
0.00334478059
0.00336618221
0.00338629565
0.00340497876
0.00342209102
0.00343749403
0.00345105296
0.00346263875
0.00347213048
0.00347941756
0.00348440138
0.00348699667
0.0034871325
0.00348475319
0.00347981913
0.00347230741
0.00346221226
0.00344954528
0.00343433533
0.00341662818
0.00339648596
0.0033739863
0.00334922127
0.00332229609
0.00329332769
0.00326244309
0.00322977767
0.00319547334
0.00315967669
0.00312253723
0.00308420554
0.00304483176
0.00300456401
0.00296354706
0.00292192103
0.0028798203
0.00283737246
0.0027946975
0.00275190706
0.00270910382
0.00266637966
0.00262381536
0.0025814802
0.00253943456
0.0024977254
0.00245638511
0.00241543345
0.00237487749
0.00233471164
0.00229491848
0.00225547015
0.00221633017
0.00217745563
0.00213879979
0.0021003149
0.00206195509
0.00202367909
0.00198545274
0.00194725098
0.00190905934
0.0018708747
0.00183270545
0.00179457104
0.00175650092
0.00171853312
0.0016807125
0.00164308887
0.0016057151
0.00156864519
0.0015319327
0.00149562925
0.00145978334
0.00142443946
0.00138963741
0.00135541189
0.0013217923
0.00128880278
0.00125646226
0.00122478478
0.00119377979
0.00116345251
0.0011338044
0.00110483354
0.00107653505
0.0010489015
0.00102192327
0.000995588904
0.000969885411
0.000944798615
0.000920313424
0.000896414054
0.000873084209
0.000850307224
0.000828066174
0.000806343995
0.000785123611
0.000764388041
0.000744120503
0.000724304497
0.000704923841
0.000685962725
0.000667405747
0.000649237927
0.000631444519
0.000614011138
0.000596923995
0.000580170138
0.000563737304
0.000547613569
0.000531787339
0.000516247396
0.000500983044
0.000485984128
0.000471240873
0.000456743764
0.000442483546
0.000428451249
0.000414638185
0.000401035924
0.000387636276
0.000374431273
0.000361413155
0.00034857436
0.000335907518
0.000323405441
0.000311061111
0.000298867679
0.000286818451
0.000274906885
0.000263126589
0.000251471309
0.000239934928
0.000228511462
0.000217195057
0.000205979978
0.000194860601
0.000183831412
0.000172886992
0.000162022012
0.000151231228
0.000140509472
0.000129851649
0.000119252733
0.000108707763
9.82118354e-05
8.77600976e-05
7.73477644e-05
6.6970043e-05
5.66223517e-05
4.62995564e-05
3.59984987e-05
2.57089793e-05
1.54425044e-05
5.12078689e-06
0.00266963443
0.00267066984
0.00267321316
0.00267723169
0.00268255954
0.00268915991
0.00269706157
0.00270626914
0.00271676228
0.00272851972
0.00274152356
0.00275575317
0.00277118272
0.00278778293
0.00280552261
0.00282436808
0.00284428276
0.00286521211
0.00288712083
0.00290995364
0.00293365213
0.00295815345
0.00298338958
0.00300928717
0.00303576666
0.00306274091
0.00309011387
0.00311777947
0.00314562258
0.00317351835
0.00320133143
0.00322891575
0.00325612143
0.00328279236
0.00330876994
0.00333389513
0.00335800979
0.00338095757
0.0034025839
0.00342273544
0.00344125972
0.00345800569
0.00347282544
0.00348557689
0.00349612656
0.00350435218
0.00351014463
0.00351340942
0.00351406792
0.00351205832
0.00350733666
0.00349987754
0.00348967467
0.00347674116
0.00346110942
0.00344283077
0.0034219748
0.00339862836
0.00337289433
0.00334489015
0.00331474609
0.00328260336
0.00324861217
0.00321292963
0.0031757177
0.00313714114
0.0030973655
0.00305655523
0.00301487203
0.00297247323
0.00292951055
0.00288612892
0.00284246553
0.00279864899
0.00275479839
0.00271102245
0.00266741959
0.00262407546
0.00258106583
0.00253845035
0.00249627559
0.00245457381
0.00241336174
0.00237264074
0.0023323971
0.00229260288
0.00225321738
0.00221418922
0.00217545914
0.0021369632
0.00209863641
0.00206041639
0.002022247
0.00198408155
0.00194588535
0.00190763753
0.00186933206
0.00183097769
0.00179259731
0.00175422637
0.00171591094
0.00167770533
0.0016396696
0.00160186702
0.00156436182
0.00152721704
0.00149049284
0.00145424507
0.00141852433
0.0013833752
0.00134883592
0.00131493827
0.00128170768
0.00124916347
0.00121731926
0.00118618346
0.00115575975
0.00112604761
0.00109704293
0.00106873841
0.00104112417
0.00101418812
0.000987916423
0.000962293815
0.000937303927
0.000912929534
0.000889152779
0.000865955401
0.000843318934
0.00082122487
0.000799654796
0.000778590495
0.000758014004
0.000737907682
0.000718254267
0.000699036902
0.00068023918
0.00066184517
0.000643839468
0.000626207262
0.000608933829
0.000592005263
0.000575408286
0.000559130194
0.00054315881
0.00052748248
0.000512090016
0.00049697065