/*--------------------------------*- C++ -*----------------------------------*\
| =========                 |                                                 |
| \\      /  F ield         | OpenFOAM: The Open Source CFD Toolbox           |
|  \\    /   O peration     | Version:  v2012                                 |
|   \\  /    A nd           | Website:  www.openfoam.com                      |
|    \\/     M anipulation  |                                                 |
\*---------------------------------------------------------------------------*/
FoamFile
{
    version     2.0;
    format      ascii;
    class       surfaceScalarField;
    location    "2.14";
    object      phi;
}
// * * * * * * * * * * * * * * * * * * * * * * * * * * * * * * * * * * * * * //

dimensions      [0 3 -1 0 0 0 0];
oriented        oriented;


internalField   nonuniform List<scalar> 
56481
(
6.6662198e-07
9.01769487e-11
6.66527452e-07
2.0446583e-10
6.66413151e-07
2.39987704e-10
6.66305487e-07
1.99897099e-10
6.66228433e-07
9.58898624e-11
6.66180818e-07
-6.02234031e-11
6.66177345e-07
-2.61038288e-10
6.66234704e-07
-4.97315872e-10
6.66359164e-07
-7.41914943e-10
6.66545534e-07
-9.56184895e-10
6.66777117e-07
-1.09726867e-09
6.67027828e-07
-1.13011293e-09
6.67266704e-07
-1.0376226e-09
6.67463688e-07
-8.24917104e-10
6.67595578e-07
-5.17276264e-10
6.67654377e-07
-1.54972721e-10
6.676252e-07
2.22303752e-10
6.6751584e-07
5.74028253e-10
6.6734155e-07
8.72154997e-10
6.67118681e-07
1.0967161e-09
6.66864769e-07
1.23644109e-09
6.66597163e-07
1.28930494e-09
6.66331954e-07
1.26111238e-09
6.66083872e-07
1.1637553e-09
6.65865229e-07
1.01532684e-09
6.65684731e-07
8.39197214e-10
6.65545482e-07
6.63827349e-10
6.65442836e-07
5.21666363e-10
6.65363066e-07
4.45972027e-10
6.6528403e-07
4.65321066e-10
6.65178507e-07
5.97010704e-10
6.65019131e-07
8.41683664e-10
6.64783284e-07
1.18137059e-09
6.6445698e-07
1.5821854e-09
6.64036911e-07
2.00151831e-09
6.63530023e-07
2.39782596e-09
6.62950716e-07
2.74002755e-09
6.62316555e-07
3.01349453e-09
6.61643856e-07
3.22078143e-09
6.60944497e-07
3.37722763e-09
6.60224714e-07
3.50350598e-09
6.59485866e-07
3.61817452e-09
6.58726436e-07
3.73285949e-09
6.57944247e-07
3.85117255e-09
6.57138066e-07
3.9707045e-09
6.56308256e-07
4.08635406e-09
6.55456619e-07
4.19322412e-09
6.54585847e-07
4.28810458e-09
6.53698986e-07
4.36954084e-09
6.52799127e-07
4.43710855e-09
6.51889335e-07
4.49060826e-09
6.50972723e-07
4.52959748e-09
6.50052541e-07
4.55331776e-09
6.4913223e-07
4.56085087e-09
6.48215405e-07
4.55130968e-09
6.47305829e-07
4.52395568e-09
6.46407354e-07
4.47822971e-09
6.4552389e-07
4.41373707e-09
6.44659365e-07
4.33022413e-09
6.43817693e-07
4.22756667e-09
6.43002743e-07
4.10576921e-09
6.42218298e-07
3.96496898e-09
6.41468021e-07
3.80543803e-09
6.40755422e-07
3.62758568e-09
6.40083825e-07
3.43195753e-09
6.39456365e-07
3.21923779e-09
6.3887598e-07
2.99025076e-09
6.38345437e-07
2.74595197e-09
6.37867356e-07
2.48742398e-09
6.37444238e-07
2.21585937e-09
6.37078488e-07
1.932532e-09
6.36772455e-07
1.63877293e-09
6.36528519e-07
1.33591748e-09
6.36349277e-07
1.02514585e-09
6.36236335e-07
7.07227714e-10
6.3618894e-07
3.83633433e-10
6.3620204e-07
5.84060211e-11
6.36285296e-07
-2.70949224e-10
6.36437733e-07
-5.9833031e-10
6.36658985e-07
-9.24687591e-10
6.36948067e-07
-1.24811752e-09
6.37303748e-07
-1.56673583e-09
6.37724477e-07
-1.87882728e-09
6.38208218e-07
-2.18254366e-09
6.3875244e-07
-2.47592427e-09
6.39354144e-07
-2.75698345e-09
6.40009893e-07
-3.02372603e-09
6.40715853e-07
-3.27417515e-09
6.41467846e-07
-3.50641474e-09
6.4226141e-07
-3.71865885e-09
6.43091838e-07
-3.90931171e-09
6.43954221e-07
-4.07702741e-09
6.44843483e-07
-4.22074577e-09
6.45754421e-07
-4.3397253e-09
6.46681762e-07
-4.43355599e-09
6.47620221e-07
-4.5021532e-09
6.48564571e-07
-4.54575677e-09
6.49509716e-07
-4.56491681e-09
6.50450752e-07
-4.56046625e-09
6.51383029e-07
-4.53350199e-09
6.52302201e-07
-4.48535376e-09
6.53204264e-07
-4.4175416e-09
6.54085591e-07
-4.33174517e-09
6.54942953e-07
-4.22975892e-09
6.5577353e-07
-4.11345603e-09
6.56574916e-07
-3.98474128e-09
6.57345119e-07
-3.84552517e-09
6.58082548e-07
-3.69768024e-09
6.58785998e-07
-3.54301992e-09
6.59454631e-07
-3.38327034e-09
6.6008795e-07
-3.22005437e-09
6.60685768e-07
-3.05487091e-09
6.61248188e-07
-2.88908958e-09
6.61775563e-07
-2.72394365e-09
6.62268473e-07
-2.56052301e-09
6.62727692e-07
-2.3997797e-09
6.63154158e-07
-2.24253135e-09
6.63548949e-07
-2.08946396e-09
6.6391325e-07
-1.94114372e-09
6.6424833e-07
-1.7980255e-09
6.6455552e-07
-1.6604593e-09
6.64836186e-07
-1.52870296e-09
6.65091708e-07
-1.40292839e-09
6.65323473e-07
-1.28322806e-09
6.65532887e-07
-1.1696189e-09
6.6572136e-07
-1.06206533e-09
6.65890282e-07
-9.60495822e-10
6.66040999e-07
-8.64810211e-10
6.66174798e-07
-7.74886124e-10
6.662929e-07
-6.90581456e-10
6.6639645e-07
-6.11734767e-10
6.6648652e-07
-5.38166554e-10
6.66564116e-07
-4.69678333e-10
6.66630181e-07
-4.06052275e-10
6.66685604e-07
-3.47054096e-10
6.66731217e-07
-2.92434454e-10
6.66767788e-07
-2.41924391e-10
6.66796014e-07
-1.95232601e-10
6.6681656e-07
-1.52082149e-10
6.66830128e-07
-1.12207236e-10
6.6683759e-07
-7.539997e-11
6.66840144e-07
-4.15919866e-11
6.6683964e-07
-1.09896178e-11
6.66834485e-07
1.73336264e-11
6.66823798e-07
4.31203259e-11
6.66808988e-07
6.63607342e-11
6.66791041e-07
8.77527504e-11
6.66770711e-07
1.07430219e-10
6.66748517e-07
1.25426216e-10
6.66724782e-07
1.41789138e-10
6.66699693e-07
1.56544794e-10
6.66673359e-07
1.69718616e-10
6.66645854e-07
1.81355648e-10
6.66617256e-07
1.91523891e-10
6.66587654e-07
2.00311477e-10
6.66557156e-07
2.07819586e-10
6.66525879e-07
2.14155361e-10
6.66493953e-07
2.19425695e-10
6.66461507e-07
2.23732203e-10
6.66428669e-07
2.2716865e-10
6.66395562e-07
2.29819407e-10
6.66362299e-07
2.31759442e-10
6.66328985e-07
2.3305395e-10
6.6629571e-07
2.33759709e-10
6.66262557e-07
2.33925755e-10
6.66229592e-07
2.33595215e-10
6.66196875e-07
2.32806447e-10
6.66164453e-07
2.31594568e-10
6.66132365e-07
2.2999213e-10
6.66100644e-07
2.28030286e-10
6.66069318e-07
2.25739298e-10
6.66038411e-07
2.23148439e-10
6.66007946e-07
2.20286375e-10
6.65977942e-07
2.17181013e-10
6.65948418e-07
2.13858836e-10
6.65919394e-07
2.10344593e-10
6.65890889e-07
2.06661154e-10
6.6586292e-07
2.02829173e-10
6.65835504e-07
1.98867297e-10
6.65808656e-07
1.94791926e-10
6.6578239e-07
1.90617526e-10
6.65756719e-07
1.8635636e-10
6.65731656e-07
1.82019161e-10
6.65707211e-07
1.77614084e-10
6.65683398e-07
1.73150329e-10
6.65660232e-07
1.6861808e-10
6.65637736e-07
1.6406791e-10
6.65615958e-07
1.59268147e-10
6.65594941e-07
1.55121728e-10
1.4739014e-10
6.66628186e-07
1.28591229e-10
6.66528077e-07
3.04574414e-10
6.66397821e-07
3.7024348e-10
6.66265357e-07
3.32361302e-10
6.66152614e-07
2.08633098e-10
6.66080054e-07
1.23361995e-11
6.66066978e-07
-2.47961536e-10
6.66126784e-07
-5.57122146e-10
6.66268375e-07
-8.83506468e-10
6.66489234e-07
-1.17704306e-09
6.66772207e-07
-1.38024267e-09
6.67087005e-07
-1.4449102e-09
6.67395748e-07
-1.34636578e-09
6.67660473e-07
-1.08964247e-09
6.67849861e-07
-7.06664419e-10
6.67941841e-07
-2.46951947e-10
6.67926749e-07
2.37395236e-10
6.67808647e-07
6.9213042e-10
6.67603252e-07
1.07754962e-09
6.67333832e-07
1.36613609e-09
6.67025911e-07
1.54436208e-09
6.66704523e-07
1.61069321e-09
6.66392903e-07
1.57273264e-09
6.66110823e-07
1.44583536e-09
6.65874341e-07
1.25180848e-09
6.65694256e-07
1.01928273e-09
6.65574103e-07
7.83980144e-10
6.65508148e-07
5.87621478e-10
6.65480284e-07
4.73835479e-10
6.65464679e-07
4.80925943e-10
6.65428409e-07
6.33281194e-10
6.65336235e-07
9.33858109e-10
6.65156967e-07
1.36063825e-09
6.64869576e-07
1.86957576e-09
6.64467105e-07
2.40398963e-09
6.63957087e-07
2.90784402e-09
6.63358313e-07
3.33880214e-09
6.62695e-07
3.67680746e-09
6.6199032e-07
3.92546101e-09
6.61261369e-07
4.10617892e-09
6.60516971e-07
4.24790391e-09
6.59758498e-07
4.37664693e-09
6.58982723e-07
4.5086353e-09
6.5818517e-07
4.64872507e-09
6.57362657e-07
4.7932174e-09
6.56514389e-07
4.93462263e-09
6.55641781e-07
5.06583139e-09
6.54747629e-07
5.18225711e-09
6.53835243e-07
5.28192678e-09
6.52907941e-07
5.36441036e-09
6.51968922e-07
5.42962709e-09
6.51021375e-07
5.4771444e-09
6.50068634e-07
5.50605894e-09
6.49114266e-07
5.51521889e-09
6.48162074e-07
5.50350155e-09
6.47216045e-07
5.4699845e-09
6.46280286e-07
5.41398948e-09
6.45358964e-07
5.33505839e-09
6.44456271e-07
5.23291703e-09
6.43576382e-07
5.10745645e-09
6.4272342e-07
4.95873083e-09
6.41901427e-07
4.78696149e-09
6.41114329e-07
4.59253685e-09
6.40365904e-07
4.37600989e-09
6.39659772e-07
4.13808944e-09
6.38999375e-07
3.87963535e-09
6.38387971e-07
3.6016548e-09
6.37828634e-07
3.30528915e-09
6.37324249e-07
2.99180877e-09
6.36877515e-07
2.66259349e-09
6.36490942e-07
2.31910478e-09
6.36166853e-07
1.96286224e-09
6.35907351e-07
1.5954189e-09
6.35714134e-07
1.21836288e-09
6.35588185e-07
8.33176818e-10
6.35530633e-07
4.41185808e-10
6.35546195e-07
4.28434386e-11
6.35630793e-07
-3.55546834e-10
6.3578741e-07
-7.54947324e-10
6.36015458e-07
-1.15273592e-09
6.36314518e-07
-1.54717734e-09
6.3668374e-07
-1.9359573e-09
6.37121677e-07
-2.31676465e-09
6.37626375e-07
-2.68724146e-09
6.38195366e-07
-3.04491576e-09
6.3882565e-07
-3.38726713e-09
6.39513705e-07
-3.71178162e-09
6.40255535e-07
-4.0160044e-09
6.41046706e-07
-4.29758637e-09
6.41882405e-07
-4.55435709e-09
6.42757479e-07
-4.78438633e-09
6.43666499e-07
-4.98604709e-09
6.44603808e-07
-5.15805534e-09
6.45563596e-07
-5.29951246e-09
6.46539966e-07
-5.40992688e-09
6.47527026e-07
-5.4892132e-09
6.48518965e-07
-5.53769541e-09
6.49510139e-07
-5.55609099e-09
6.50495149e-07
-5.54547622e-09
6.51468907e-07
-5.50726013e-09
6.52426696e-07
-5.44314267e-09
6.53364214e-07
-5.355059e-09
6.54277607e-07
-5.24513839e-09
6.55163494e-07
-5.11564648e-09
6.56018977e-07
-4.96893893e-09
6.56841638e-07
-4.80740231e-09
6.57629534e-07
-4.63342116e-09
6.58381178e-07
-4.44932418e-09
6.59095516e-07
-4.25735784e-09
6.59771898e-07
-4.05965195e-09
6.60410044e-07
-3.85820039e-09
6.6101001e-07
-3.6548366e-09
6.61572148e-07
-3.45122814e-09
6.62097074e-07
-3.24886943e-09
6.62585625e-07
-3.04907457e-09
6.63038831e-07
-2.85298508e-09
6.63457874e-07
-2.6615747e-09
6.63844064e-07
-2.47565337e-09
6.64198802e-07
-2.29588185e-09
6.64523559e-07
-2.12278267e-09
6.64819848e-07
-1.9567487e-09
6.65089205e-07
-1.79805924e-09
6.65333165e-07
-1.64688913e-09
6.65553259e-07
-1.50332133e-09
6.65750996e-07
-1.36735585e-09
6.65927858e-07
-1.23892766e-09
6.66085284e-07
-1.11792178e-09
6.66224658e-07
-1.00418435e-09
6.66347305e-07
-8.9753334e-10
6.66454487e-07
-7.97762967e-10
6.66547397e-07
-7.04644778e-10
6.66627161e-07
-6.17930555e-10
6.66694836e-07
-5.373534e-10
6.66751412e-07
-4.62628984e-10
6.66797818e-07
-3.93459729e-10
6.66834922e-07
-3.29538112e-10
6.66863547e-07
-2.70549636e-10
6.66884495e-07
-2.16180166e-10
6.66898541e-07
-1.66128919e-10
6.66906447e-07
-1.20112651e-10
6.66908919e-07
-7.78726147e-11
6.66906513e-07
-3.91854807e-11
6.66899414e-07
-3.89096867e-12
6.66888482e-07
2.82659685e-11
6.66874055e-07
5.75471401e-11
6.66856277e-07
8.41389836e-11
6.66835505e-07
1.08524513e-10
6.66812113e-07
1.30822189e-10
6.66786533e-07
1.51006111e-10
6.66759164e-07
1.69158223e-10
6.66730327e-07
1.85382211e-10
6.66700277e-07
1.99768138e-10
6.66669221e-07
2.12411866e-10
6.6663732e-07
2.23424313e-10
6.66604709e-07
2.32923189e-10
6.66571502e-07
2.41026091e-10
6.66537809e-07
2.47849049e-10
6.6650373e-07
2.53504153e-10
6.66469366e-07
2.58096451e-10
6.66434812e-07
2.61722814e-10
6.6640016e-07
2.64471588e-10
6.66365496e-07
2.66423156e-10
6.66330901e-07
2.67648962e-10
6.66296448e-07
2.68212919e-10
6.66262202e-07
2.68171568e-10
6.66228221e-07
2.67575547e-10
6.66194557e-07
2.66470416e-10
6.66161254e-07
2.64898025e-10
6.66128349e-07
2.62896992e-10
6.66095876e-07
2.60503821e-10
6.66063862e-07
2.57753333e-10
6.66032331e-07
2.54678557e-10
6.66001307e-07
2.51311174e-10
6.65970806e-07
2.47681571e-10
6.65940846e-07
2.43819081e-10
6.6591144e-07
2.39750332e-10
6.65882602e-07
2.35499518e-10
6.65854343e-07
2.31088358e-10
6.65826674e-07
2.2653635e-10
6.65799605e-07
2.21860677e-10
6.65773146e-07
2.1707656e-10
6.65747305e-07
2.12196791e-10
6.65722092e-07
2.07232366e-10
6.65697515e-07
2.02191014e-10
6.65673583e-07
1.97082051e-10
6.65650306e-07
1.91895694e-10
6.65627684e-07
1.86689433e-10
6.65605717e-07
1.8123552e-10
6.65584289e-07
1.7654975e-10
1.68180718e-10
6.6662561e-07
1.69680878e-10
6.66527696e-07
4.02488328e-10
6.6640204e-07
4.95900151e-10
6.6627557e-07
4.58831321e-10
6.66169745e-07
3.14457847e-10
6.66101774e-07
8.03076543e-11
6.6609267e-07
-2.38858347e-10
6.66155047e-07
-6.1949855e-10
6.66296347e-07
-1.02480683e-09
6.6651312e-07
-1.39381591e-09
6.66788694e-07
-1.65581658e-09
6.67094327e-07
-1.75054311e-09
6.67394074e-07
-1.64611262e-09
6.67651458e-07
-1.34702707e-09
6.67835509e-07
-8.9071565e-10
6.67924802e-07
-3.3624498e-10
6.67916699e-07
2.45498719e-10
6.67814599e-07
7.94229931e-10
6.67631695e-07
1.26045412e-09
6.67386573e-07
1.61125848e-09
6.67101337e-07
1.8295972e-09
6.66799329e-07
1.91270187e-09
6.6650245e-07
1.86961102e-09
6.66230182e-07
1.71810361e-09
6.65998634e-07
1.48335644e-09
6.65819276e-07
1.19864098e-09
6.65696884e-07
9.06371912e-10
6.65627276e-07
6.57230122e-10
6.65595681e-07
5.05429669e-10
6.6557691e-07
4.99697203e-10
6.65538471e-07
6.7172057e-10
6.65446101e-07
1.02622797e-09
6.6526981e-07
1.53692896e-09
6.64989179e-07
2.15020733e-09
6.64596742e-07
2.7964258e-09
6.64098467e-07
3.40611952e-09
6.63511019e-07
3.92624959e-09
6.62856615e-07
4.33121216e-09
6.62157092e-07
4.62498353e-09
6.61429126e-07
4.834145e-09
6.60681925e-07
4.99510549e-09
6.59917701e-07
5.14087071e-09
6.59134125e-07
5.29221081e-09
6.58327389e-07
5.45546127e-09
6.57494627e-07
5.62597921e-09
6.56635071e-07
5.79417903e-09
6.55750009e-07
5.95089302e-09
6.54842092e-07
6.09017432e-09
6.53914555e-07
6.20946359e-09
6.5297073e-07
6.30823573e-09
6.52013898e-07
6.38645856e-09
6.51047372e-07
6.44367027e-09
6.50074625e-07
6.47880619e-09
6.4909937e-07
6.49047379e-09
6.48125565e-07
6.47730729e-09
6.47157359e-07
6.43818972e-09
6.46199037e-07
6.37231135e-09
6.45254956e-07
6.27913935e-09
6.44329503e-07
6.15837055e-09
6.43427053e-07
6.00990675e-09
6.42551932e-07
5.83385173e-09
6.41708377e-07
5.63051651e-09
6.40900494e-07
5.40041923e-09
6.40132224e-07
5.14428059e-09
6.39407304e-07
4.86300864e-09
6.38729257e-07
4.55768321e-09
6.38101375e-07
4.22953678e-09
6.3752674e-07
3.87992386e-09
6.37008242e-07
3.51030651e-09
6.36548601e-07
3.12223496e-09
6.36150377e-07
2.71732852e-09
6.35815972e-07
2.29726736e-09
6.35547603e-07
1.86378799e-09
6.35347307e-07
1.41865877e-09
6.3521682e-07
9.63663465e-10
6.3515719e-07
5.00815473e-10
6.35166834e-07
3.31995339e-11
6.35250533e-07
-4.39245389e-10
6.3540757e-07
-9.11984468e-10
6.35638362e-07
-1.38352734e-09
6.35942464e-07
-1.85128026e-09
6.36319034e-07
-2.31252643e-09
6.36766714e-07
-2.76444503e-09
6.37283597e-07
-3.20412478e-09
6.37867231e-07
-3.62854951e-09
6.38514617e-07
-4.03465296e-09
6.39222212e-07
-4.41937692e-09
6.39985948e-07
-4.77973991e-09
6.40801255e-07
-5.11289362e-09
6.41663106e-07
-5.41620802e-09
6.42566063e-07
-5.68734376e-09
6.43504345e-07
-5.92432847e-09
6.44471896e-07
-6.12560673e-09
6.45462478e-07
-6.29009437e-09
6.46469759e-07
-6.41720799e-09
6.47487412e-07
-6.50686648e-09
6.48509213e-07
-6.55949584e-09
6.49529131e-07
-6.5760094e-09
6.50541419e-07
-6.55776412e-09
6.51540685e-07
-6.50652599e-09
6.52521958e-07
-6.42441595e-09
6.53480738e-07
-6.31383904e-09
6.54413031e-07
-6.17743087e-09
6.55315369e-07
-6.01798478e-09
6.56184823e-07
-5.83839319e-09
6.57018995e-07
-5.64157446e-09
6.57816006e-07
-5.43043167e-09
6.58574469e-07
-5.20778748e-09
6.59293464e-07
-4.97635224e-09
6.59972495e-07
-4.73868324e-09
6.60611457e-07
-4.49716264e-09
6.6121059e-07
-4.25396962e-09
6.61770437e-07
-4.01107535e-09
6.62291804e-07
-3.77023596e-09
6.62775715e-07
-3.5329857e-09
6.63223377e-07
-3.30064749e-09
6.63636143e-07
-3.07434014e-09
6.64015474e-07
-2.85498453e-09
6.64362914e-07
-2.64332209e-09
6.6468006e-07
-2.43992873e-09
6.64968538e-07
-2.24522612e-09
6.6522998e-07
-2.05950188e-09
6.65466014e-07
-1.88292258e-09
6.65678244e-07
-1.71555139e-09
6.65868249e-07
-1.55736055e-09
6.6603757e-07
-1.40824944e-09
6.66187706e-07
-1.2680572e-09
6.66320092e-07
-1.1365709e-09
6.66436096e-07
-1.01353653e-09
6.66537e-07
-8.98667138e-10
6.66624005e-07
-7.91649627e-10
6.66698227e-07
-6.92153459e-10
6.66760709e-07
-5.99835397e-10
6.66812423e-07
-5.14342134e-10
6.66854277e-07
-4.35314596e-10
6.6688713e-07
-3.62390865e-10
6.6691179e-07
-2.9520911e-10
6.66929022e-07
-2.33412848e-10
6.66939549e-07
-1.76655747e-10
6.66944038e-07
-1.24601099e-10
6.66943071e-07
-7.690577e-11
6.66937032e-07
-3.3146549e-11
6.66925964e-07
7.17699218e-12
6.66911494e-07
4.27357394e-11
6.66893575e-07
7.54661423e-11
6.66872573e-07
1.05141579e-10
6.66849158e-07
1.31939485e-10
6.66823856e-07
1.56123652e-10
6.66796928e-07
1.77933833e-10
6.66768556e-07
1.97530325e-10
6.66738912e-07
2.15026933e-10
6.66708146e-07
2.30533321e-10
6.66676393e-07
2.44165289e-10
6.66643777e-07
2.56040228e-10
6.66610423e-07
2.66277077e-10
6.66576454e-07
2.74994789e-10
6.66541992e-07
2.82311402e-10
6.66507155e-07
2.8834132e-10
6.66472058e-07
2.93193315e-10
6.66436812e-07
2.9696881e-10
6.6640152e-07
2.9976341e-10
6.66366275e-07
3.01668538e-10
6.66331158e-07
3.02765809e-10
6.66296242e-07
3.03128855e-10
6.6626159e-07
3.02823512e-10
6.66227256e-07
3.0190943e-10
6.66193286e-07
3.00440638e-10
6.66159717e-07
2.98466605e-10
6.66126582e-07
2.960324e-10
6.66093906e-07
2.93179754e-10
6.66061712e-07
2.89947563e-10
6.66030019e-07
2.86371857e-10
6.65998843e-07
2.82486557e-10
6.65968201e-07
2.78323638e-10
6.65938107e-07
2.7391266e-10
6.65908577e-07
2.69280919e-10
6.65879623e-07
2.64453598e-10
6.65851258e-07
2.59453529e-10
6.65823492e-07
2.54301562e-10
6.65796337e-07
2.49016171e-10
6.657698e-07
2.43613731e-10
6.65743889e-07
2.38108027e-10
6.6571861e-07
2.32510995e-10
6.6569397e-07
2.26831358e-10
6.65669972e-07
2.21079253e-10
6.65646623e-07
2.15245437e-10
6.6562393e-07
2.09382174e-10
6.65601915e-07
2.03250303e-10
6.65580642e-07
1.97822738e-10
1.88307645e-10
6.66625156e-07
2.11225274e-10
6.6652187e-07
5.05774032e-10
6.6638597e-07
6.31799665e-10
6.66246521e-07
5.98281031e-10
6.66129171e-07
4.31807247e-10
6.66058044e-07
1.51435026e-10
6.66045445e-07
-2.262598e-10
6.66111538e-07
-6.85591212e-10
6.66266116e-07
-1.1793844e-09
6.66506521e-07
-1.6342213e-09
6.66814825e-07
-1.96412014e-09
6.67159351e-07
-2.09506956e-09
6.67500022e-07
-1.98678392e-09
6.67795892e-07
-1.64289643e-09
6.68012742e-07
-1.10756602e-09
6.68128887e-07
-4.52390117e-10
6.68131043e-07
2.43342999e-10
6.68024204e-07
9.01068964e-10
6.67824236e-07
1.46042174e-09
6.67554837e-07
1.88065816e-09
6.67242827e-07
2.14160707e-09
6.66915053e-07
2.24047508e-09
6.66597006e-07
2.18765847e-09
6.66311462e-07
2.00364798e-09
6.66076915e-07
1.71790326e-09
6.65905792e-07
1.3697635e-09
6.65802336e-07
1.00982802e-09
6.65760599e-07
6.98967193e-10
6.65763482e-07
5.0254657e-10
6.65783637e-07
4.79542052e-10
6.65786165e-07
6.69192972e-10
6.6573325e-07
1.0791424e-09
6.65590791e-07
1.67938848e-09
6.6533502e-07
2.40597826e-09
6.64956867e-07
3.17457888e-09
6.64462633e-07
3.90035396e-09
6.63870823e-07
4.51805951e-09
6.63206233e-07
4.99580217e-09
6.62493245e-07
5.33797157e-09
6.61750464e-07
5.57692558e-09
6.60988164e-07
5.75740572e-09
6.60208804e-07
5.92023e-09
6.59409734e-07
6.09128123e-09
6.58586561e-07
6.27863401e-09
6.57735838e-07
6.47670231e-09
6.5685636e-07
6.67365673e-09
6.55949169e-07
6.85808496e-09
6.55016817e-07
7.02252616e-09
6.54062544e-07
7.1637365e-09
6.53089738e-07
7.28104194e-09
6.5210177e-07
7.37442614e-09
6.51102072e-07
7.44336792e-09
6.50094272e-07
7.48660628e-09
6.49082277e-07
7.50246941e-09
6.48070272e-07
7.48931164e-09
6.47062671e-07
7.44579111e-09
6.46064037e-07
7.37094565e-09
6.45079019e-07
7.26415683e-09
6.44112298e-07
7.12509144e-09
6.43168536e-07
6.95366932e-09
6.42252331e-07
6.7500567e-09
6.41368179e-07
6.51466814e-09
6.40520438e-07
6.24815985e-09
6.39713303e-07
5.9514156e-09
6.38950791e-07
5.62552113e-09
6.3823673e-07
5.27174379e-09
6.37574751e-07
4.89151624e-09
6.36968264e-07
4.48641106e-09
6.3642044e-07
4.05813001e-09
6.35934197e-07
3.60847813e-09
6.35512194e-07
3.13933113e-09
6.35156843e-07
2.65261895e-09
6.3487032e-07
2.15031083e-09
6.34654563e-07
1.63441598e-09
6.34511221e-07
1.10700469e-09
6.34441803e-07
5.70233511e-10
6.34448545e-07
2.64583089e-11
6.34531127e-07
-5.21827753e-10
6.34690844e-07
-1.07170113e-09
6.34927832e-07
-1.62051584e-09
6.35241961e-07
-2.1654094e-09
6.35632663e-07
-2.70322828e-09
6.36098824e-07
-3.23060614e-09
6.36638725e-07
-3.74402527e-09
6.37250013e-07
-4.23983758e-09
6.37929681e-07
-4.71432084e-09
6.38674053e-07
-5.16374942e-09
6.39478803e-07
-5.58448996e-09
6.40338987e-07
-5.97307752e-09
6.41249098e-07
-6.32631923e-09
6.42203136e-07
-6.64138123e-09
6.43194687e-07
-6.9158795e-09
6.4421702e-07
-7.14793971e-09
6.45263188e-07
-7.3362629e-09
6.46326143e-07
-7.48016277e-09
6.47398847e-07
-7.57957027e-09
6.48474391e-07
-7.63504018e-09
6.49546109e-07
-7.64772666e-09
6.50607673e-07
-7.61932854e-09
6.5165319e-07
-7.55204316e-09
6.5267727e-07
-7.44849631e-09
6.53675084e-07
-7.31165243e-09
6.54642398e-07
-7.14474497e-09
6.55575598e-07
-6.9511852e-09
6.56471693e-07
-6.73448811e-09
6.57328302e-07
-6.49818316e-09
6.58143633e-07
-6.24576281e-09
6.58916451e-07
-5.98060502e-09
6.59646034e-07
-5.70593512e-09
6.60332129e-07
-5.42477861e-09
6.60974903e-07
-5.13993625e-09
6.61574886e-07
-4.85395344e-09
6.62132927e-07
-4.56911629e-09
6.62650137e-07
-4.2874459e-09
6.63127845e-07
-4.01069328e-09
6.63567551e-07
-3.74035407e-09
6.63970891e-07
-3.47767932e-09
6.64339591e-07
-3.22368483e-09
6.64675443e-07
-2.97917448e-09
6.64980273e-07
-2.74475822e-09
6.65255914e-07
-2.52086711e-09
6.6550419e-07
-2.30777798e-09
6.65726896e-07
-2.105629e-09
6.65925784e-07
-1.91443943e-09
6.66102546e-07
-1.73412256e-09
6.66258803e-07
-1.56450596e-09
6.66396094e-07
-1.40534876e-09
6.6651588e-07
-1.25635685e-09
6.66619543e-07
-1.11719964e-09
6.66708395e-07
-9.87518734e-10
6.66783677e-07
-8.66931363e-10
6.66846559e-07
-7.55035796e-10
6.66898139e-07
-6.51415083e-10
6.66939438e-07
-5.55640995e-10
6.66971404e-07
-4.67280807e-10
6.66994915e-07
-3.85902299e-10
6.67010784e-07
-3.11077618e-10
6.67019759e-07
-2.42387956e-10
6.67022531e-07
-1.7942804e-10
6.67019748e-07
-1.21817618e-10
6.67012091e-07
-6.92494771e-11
6.67000612e-07
-2.16668458e-11
6.66986173e-07
2.16156943e-11
6.66967392e-07
6.15167537e-11
6.66945514e-07
9.73443306e-11
6.6692091e-07
1.29745726e-10
6.66893817e-07
1.59032552e-10
6.66864524e-07
1.85415906e-10
6.6683341e-07
2.09048298e-10
6.66800849e-07
2.30090924e-10
6.66767159e-07
2.48717211e-10
6.66732591e-07
2.65101356e-10
6.66697344e-07
2.79412511e-10
6.66661568e-07
2.91815937e-10
6.66625381e-07
3.02464376e-10
6.66588887e-07
3.11488554e-10
6.66552184e-07
3.19014507e-10
6.6651536e-07
3.25164783e-10
6.66478498e-07
3.30055821e-10
6.6644167e-07
3.33796751e-10
6.66404944e-07
3.3648889e-10
6.66368387e-07
3.38226268e-10
6.66332058e-07
3.39094367e-10
6.66296015e-07
3.39171486e-10
6.66260311e-07
3.3852844e-10
6.6622499e-07
3.37229839e-10
6.66190096e-07
3.35334518e-10
6.66155666e-07
3.32896665e-10
6.66121733e-07
3.29965958e-10
6.66088324e-07
3.26588661e-10
6.66055463e-07
3.22808033e-10
6.66023171e-07
3.1866409e-10
6.65991463e-07
3.14194259e-10
6.65960354e-07
3.09433417e-10
6.65929853e-07
3.04413474e-10
6.6589997e-07
2.99163873e-10
6.65870712e-07
2.93711534e-10
6.65842085e-07
2.88080447e-10
6.65814094e-07
2.82292319e-10
6.65786744e-07
2.76366348e-10
6.65760038e-07
2.70319608e-10
6.6573398e-07
2.64166531e-10
6.65708571e-07
2.57919786e-10
6.65683813e-07
2.51588748e-10
6.65659708e-07
2.45185024e-10
6.65636253e-07
2.3870053e-10
6.65613436e-07
2.32198883e-10
6.65591237e-07
2.25449234e-10
6.65569494e-07
2.19565469e-10
2.09565379e-10
6.66625188e-07
2.52637516e-10
6.66522393e-07
6.08568607e-10
6.6638766e-07
7.66532403e-10
6.66249337e-07
7.36604795e-10
6.66131668e-07
5.49476262e-10
6.66054794e-07
2.28308634e-10
6.66044837e-07
-2.16302856e-10
6.66115398e-07
-7.56151772e-10
6.66274905e-07
-1.33889172e-09
6.66520047e-07
-1.87936319e-09
6.66833075e-07
-2.27714842e-09
6.6718285e-07
-2.44484442e-09
6.67529971e-07
-2.33390472e-09
6.67834026e-07
-1.94695203e-09
6.68060471e-07
-1.33401021e-09
6.68185256e-07
-5.77175961e-10
6.68200418e-07
2.28181203e-10
6.6810888e-07
9.92607011e-10
6.67924995e-07
1.64430646e-09
6.67670394e-07
2.13525949e-09
6.6737087e-07
2.44113092e-09
6.6705338e-07
2.55796539e-09
6.66743698e-07
2.49734064e-09
6.66464841e-07
2.2825047e-09
6.66235748e-07
1.94699625e-09
6.66069677e-07
1.53583442e-09
6.6597211e-07
1.10739562e-09
6.65938437e-07
7.32639614e-10
6.65952269e-07
4.88714238e-10
6.65985577e-07
4.46234709e-10
6.66002019e-07
6.52750801e-10
6.6596302e-07
1.11814086e-09
6.65834347e-07
1.80806171e-09
6.65592021e-07
2.64830406e-09
6.65226306e-07
3.54029397e-09
6.6474253e-07
4.38413079e-09
6.64158287e-07
5.10230169e-09
6.63497819e-07
5.65627041e-09
6.6278539e-07
6.05040085e-09
6.62039823e-07
6.3224923e-09
6.61271745e-07
6.52548349e-09
6.60483922e-07
6.7080532e-09
6.59673863e-07
6.90134045e-09
6.58837197e-07
7.11530022e-09
6.57970416e-07
7.34348274e-09
6.5707225e-07
7.57182271e-09
6.56143712e-07
7.78662307e-09
6.55187386e-07
7.97885238e-09
6.54206592e-07
8.14453069e-09
6.53204839e-07
8.28279469e-09
6.52185654e-07
8.39361091e-09
6.51152655e-07
8.47636744e-09
6.50109686e-07
8.52957464e-09
6.49060907e-07
8.55124898e-09
6.48010784e-07
8.53943473e-09
6.46964036e-07
8.49253913e-09
6.45925555e-07
8.40942627e-09
6.44900337e-07
8.28937495e-09
6.4389342e-07
8.13200817e-09
6.42909836e-07
7.93725325e-09
6.4195456e-07
7.70533338e-09
6.41032457e-07
7.43677089e-09
6.40148234e-07
7.13238228e-09
6.39306385e-07
6.79326508e-09
6.38511139e-07
6.42076728e-09
6.3776643e-07
6.01645241e-09
6.37075889e-07
5.58205732e-09
6.36442864e-07
5.11943632e-09
6.35870461e-07
4.63053277e-09
6.35361586e-07
4.11735362e-09
6.34918964e-07
3.58195235e-09
6.34545147e-07
3.02643614e-09
6.34242484e-07
2.45297444e-09
6.3401309e-07
1.86380928e-09
6.3385884e-07
1.26125454e-09
6.33781321e-07
6.47752808e-10
6.33781824e-07
2.59555335e-11
6.33861921e-07
-6.01925136e-10
6.34022637e-07
-1.23241657e-09
6.34264568e-07
-1.86244674e-09
6.34587758e-07
-2.48859945e-09
6.34991733e-07
-3.10720366e-09
6.35475465e-07
-3.71433795e-09
6.36037305e-07
-4.30586564e-09
6.36674939e-07
-4.8774711e-09
6.37385345e-07
-5.42472759e-09
6.38164773e-07
-5.9431769e-09
6.3900873e-07
-6.42844693e-09
6.39912002e-07
-6.87634999e-09
6.40868696e-07
-7.28301258e-09
6.41872302e-07
-7.64498744e-09
6.42915793e-07
-7.95937081e-09
6.43991736e-07
-8.2238828e-09
6.45092425e-07
-8.43695142e-09
6.46210023e-07
-8.59776052e-09
6.47336709e-07
-8.70625637e-09
6.48464822e-07
-8.76315321e-09
6.49586995e-07
-8.7699003e-09
6.50696279e-07
-8.72861186e-09
6.51786241e-07
-8.64200513e-09
6.52851054e-07
-8.51330986e-09
6.53885556e-07
-8.34615476e-09
6.54885289e-07
-8.14447745e-09
6.55846514e-07
-7.91241052e-09
6.56766215e-07
-7.65418876e-09
6.57642072e-07
-7.37404066e-09
6.58472434e-07
-7.07612488e-09
6.59256268e-07
-6.76443892e-09
6.59993108e-07
-6.44277431e-09
6.60682992e-07
-6.1146631e-09
6.61326407e-07
-5.78335089e-09
6.61924218e-07
-5.45176459e-09
6.62477613e-07
-5.12251098e-09
6.6298804e-07
-4.79787354e-09
6.63457157e-07
-4.47981036e-09
6.63886777e-07
-4.16997409e-09
6.64278826e-07
-3.86972765e-09
6.64635299e-07
-3.58015818e-09
6.64958231e-07
-3.30210616e-09
6.65249661e-07
-3.03618815e-09
6.65511609e-07
-2.7828158e-09
6.65746057e-07
-2.54222555e-09
6.65954927e-07
-2.31449924e-09
6.66140078e-07
-2.0995906e-09
6.663033e-07
-1.89734423e-09
6.66446313e-07
-1.70751924e-09
6.66570768e-07
-1.52980337e-09
6.66678232e-07
-1.36382132e-09
6.6677018e-07
-1.20914746e-09
6.66847978e-07
-1.06531718e-09
6.66912886e-07
-9.31838666e-10
6.66966057e-07
-8.08207228e-10
6.67008556e-07
-6.93913907e-10
6.67041365e-07
-5.8845005e-10
6.67065397e-07
-4.91312267e-10
6.670815e-07
-4.02005505e-10
6.67090468e-07
-3.20046188e-10
6.67093048e-07
-2.44967617e-10
6.67089944e-07
-1.76324105e-10
6.67081812e-07
-1.13685298e-10
6.67069126e-07
-5.65634046e-11
6.67051377e-07
-3.91842673e-12
6.67030082e-07
4.29106389e-11
6.67006172e-07
8.54270887e-11
6.66979585e-07
1.23931454e-10
6.66950734e-07
1.58596725e-10
6.66920056e-07
1.89710358e-10
6.66887886e-07
2.17585502e-10
6.66854425e-07
2.42509478e-10
6.66819825e-07
2.64691552e-10
6.66784251e-07
2.84290927e-10
6.66747871e-07
3.01481213e-10
6.6671084e-07
3.16443296e-10
6.66673309e-07
3.29347654e-10
6.66635419e-07
3.4035433e-10
6.66597294e-07
3.49612726e-10
6.66559044e-07
3.57264523e-10
6.66520766e-07
3.63443268e-10
6.66482548e-07
3.68273703e-10
6.66444472e-07
3.71872591e-10
6.66406613e-07
3.74348564e-10
6.66369036e-07
3.75802749e-10
6.66331802e-07
3.76327986e-10
6.66294964e-07
3.76010009e-10
6.66258565e-07
3.74926971e-10
6.66222645e-07
3.73150654e-10
6.66187233e-07
3.70746548e-10
6.66152354e-07
3.67774714e-10
6.66118031e-07
3.64289634e-10
6.66084278e-07
3.60341292e-10
6.66051111e-07
3.55975673e-10
6.6601854e-07
3.51234675e-10
6.65986577e-07
3.46157076e-10
6.65955232e-07
3.40778828e-10
6.65924512e-07
3.35132742e-10
6.65894427e-07
3.29249146e-10
6.65864983e-07
3.23155921e-10
6.65836185e-07
3.16878073e-10
6.65808039e-07
3.10438394e-10
6.65780548e-07
3.0385717e-10
6.65753715e-07
2.97152578e-10
6.65727542e-07
2.9034011e-10
6.65702028e-07
2.83433512e-10
6.65677173e-07
2.76443287e-10
6.65652976e-07
2.69381949e-10
6.65629435e-07
2.62242397e-10
6.65606551e-07
2.55082608e-10
6.65584339e-07
2.47661204e-10
6.65562884e-07
2.41020339e-10
2.29850947e-10
6.66624045e-07
2.95292103e-10
6.66517817e-07
7.14797443e-10
6.66378129e-07
9.06220316e-10
6.66234952e-07
8.79781865e-10
6.66114829e-07
6.69598832e-10
6.6604206e-07
3.01077983e-10
6.66033867e-07
-2.08110586e-10
6.66109736e-07
-8.32020786e-10
6.66279619e-07
-1.5087747e-09
6.66540511e-07
-2.14025528e-09
6.66873712e-07
-2.61034904e-09
6.67246385e-07
-2.81751683e-09
6.67617028e-07
-2.70454819e-09
6.67943093e-07
-2.27301709e-09
6.68188303e-07
-1.57922047e-09
6.68328094e-07
-7.16966424e-10
6.68352503e-07
2.03772166e-10
6.68265134e-07