/*--------------------------------*- C++ -*----------------------------------*\
| =========                 |                                                 |
| \\      /  F ield         | OpenFOAM: The Open Source CFD Toolbox           |
|  \\    /   O peration     | Version:  v2012                                 |
|   \\  /    A nd           | Website:  www.openfoam.com                      |
|    \\/     M anipulation  |                                                 |
\*---------------------------------------------------------------------------*/
FoamFile
{
    version     2.0;
    format      ascii;
    class       surfaceVectorField;
    location    "2.14";
    object      Uf;
}
// * * * * * * * * * * * * * * * * * * * * * * * * * * * * * * * * * * * * * //

dimensions      [0 1 -1 0 0 0 0];


internalField   nonuniform List<vector> 
56481
(
(0.099993292 1.49806235e-05 0)
(0.099998358 1.55760176e-05 0)
(0.0999791128 2.23026178e-05 0)
(0.0999879162 3.53168294e-05 0)
(0.0999619677 2.06771448e-05 0)
(0.0999707178 4.14524193e-05 0)
(0.0999458181 1.07996568e-05 0)
(0.0999513511 3.45276789e-05 0)
(0.0999342599 -6.33676753e-06 0)
(0.0999344185 1.65627964e-05 0)
(0.0999271177 -2.97852722e-05 0)
(0.0999223072 -1.04022236e-05 0)
(0.0999265967 -5.78610681e-05 0)
(0.0999166529 -4.50884291e-05 0)
(0.0999352006 -8.80005978e-05 0)
(0.099919958 -8.59000096e-05 0)
(0.0999538696 -0.000116318119 0)
(0.0999342399 -0.00012814896 0)
(0.0999818252 -0.000137714522 0)
(0.099959906 -0.0001651592 0)
(0.100016563 -0.000147230493 0)
(0.0999953875 -0.000189528248 0)
(0.100054169 -0.000141580774 0)
(0.100037154 -0.000195201313 0)
(0.100090001 -0.000120099745 0)
(0.100080274 -0.000179225711 0)
(0.100119548 -8.48181458e-05 0)
(0.100119362 -0.000142485674 0)
(0.100139332 -3.97423162e-05 0)
(0.100149559 -8.93477289e-05 0)
(0.100148152 9.97022235e-06 0)
(0.100167613 -2.6768014e-05 0)
(0.100143775 5.90859507e-05 0)
(0.100171678 3.83979188e-05 0)
(0.100127371 0.000103167362 0)
(0.100161177 9.91503464e-05 0)
(0.100101227 0.000138696614 0)
(0.100137696 0.000150644946 0)
(0.100067797 0.000163328828 0)
(0.100104199 0.00018943277 0)
(0.10002971 0.00017606928 0)
(0.100063877 0.000213567123 0)
(0.0999895694 0.000177150386 0)
(0.100019964 0.000222698114 0)
(0.0999497881 0.00016788461 0)
(0.0999755635 0.00021782849 0)
(0.0999125758 0.000150531113 0)
(0.0999334663 0.000201012304 0)
(0.0998797793 0.000128141118 0)
(0.0998960543 0.000175374627 0)
(0.0998527047 0.000104399423 0)
(0.0998651888 0.000144952238 0)
(0.0998318174 8.34454019e-05 0)
(0.0998419488 0.000114661081 0)
(0.0998164205 6.95597175e-05 0)
(0.099826274 9.01060157e-05 0)
(0.099804455 6.66337577e-05 0)
(0.0998166716 7.7031533e-05 0)
(0.0997925995 7.74855887e-05 0)
(0.0998101524 8.03736384e-05 0)
(0.099776771 0.000103181375 0)
(0.0998025044 0.00010312003 0)
(0.0997528647 0.000142572057 0)
(0.0997889124 0.000145381723 0)
(0.0997174876 0.000192298228 0)
(0.0997647952 0.00020405492 0)
(0.099668542 0.000247399236 0)
(0.0997266591 0.000273286567 0)
(0.0996055317 0.000302400295 0)
(0.0996727442 0.000345716798 0)
(0.0995294985 0.000352548618 0)
(0.0996032709 0.000414169945 0)
(0.0994426025 0.000394808658 0)
(0.0995201939 0.000473277485 0)
(0.0993474783 0.000428304502 0)
(0.0994265414 0.00052051269 0)
(0.0992465735 0.000454097406 0)
(0.0993255558 0.000556316791 0)
(0.0991416697 0.000474437262 0)
(0.0992199196 0.000583339316 0)
(0.0990337022 0.00049181454 0)
(0.0991112961 0.000605151041 0)
(0.098922875 0.000508174785 0)
(0.0990002799 0.000624957415 0)
(0.0988089605 0.000524533349 0)
(0.0988866841 0.000644766637 0)
(0.0986916321 0.000541020203 0)
(0.0987699821 0.000665202529 0)
(0.098570705 0.000557205525 0)
(0.0986497022 0.000685848958 0)
(0.0984462335 0.000572486602 0)
(0.0985256537 0.000705824793 0)
(0.0983184879 0.000586363471 0)
(0.098397963 0.000724284161 0)
(0.0981878721 0.000598540177 0)
(0.0982669871 0.00074067262 0)
(0.098054843 0.000608888537 0)
(0.0981331927 0.000754738869 0)
(0.0979198641 0.000617356265 0)
(0.0979970672 0.000766409657 0)
(0.0977833953 0.000623889546 0)
(0.0978590844 0.000775650516 0)
(0.0976459035 0.000628400058 0)
(0.0977197105 0.000782385017 0)
(0.0975078763 0.00063077021 0)
(0.0975794249 0.000786482157 0)
(0.0973698296 0.000630874675 0)
(0.0974387364 0.00078778333 0)
(0.097232306 0.000628599604 0)
(0.0972981874 0.000786135319 0)
(0.0970958695 0.000623852047 0)
(0.0971583491 0.000781410525 0)
(0.0969610983 0.000616561155 0)
(0.0970198128 0.000773512403 0)
(0.0968285787 0.000606675903 0)
(0.0968831817 0.000762372765 0)
(0.0966988999 0.000594162882 0)
(0.0967490647 0.000747947803 0)
(0.0965726491 0.000579005322 0)
(0.0966180711 0.000730216059 0)
(0.0964504066 0.00056120302 0)
(0.0964908053 0.000709178328 0)
(0.0963327398 0.000540772642 0)
(0.0963678621 0.000684858276 0)
(0.0962201984 0.000517748303 0)
(0.0962498207 0.000657302943 0)
(0.0961133084 0.000492182686 0)
(0.0961372403 0.000626582947 0)
(0.096012569 0.000464148924 0)
(0.0960306552 0.000592792631 0)
(0.0959184499 0.000433743021 0)
(0.0959305727 0.00055605023 0)
(0.0958313922 0.000401086026 0)
(0.0958374716 0.000516497831 0)
(0.0957518108 0.00036632486 0)
(0.0957518029 0.000474300769 0)
(0.0956800986 0.000329630736 0)
(0.0956739914 0.000429646012 0)
(0.0956166308 0.000291194713 0)
(0.0956044379 0.000382739325 0)
(0.0955617684 0.000251221541 0)
(0.0955435217 0.000333800964 0)
(0.0955158635 0.000209920339 0)
(0.0954916008 0.000283060813 0)
(0.0954792731 0.000167494999 0)
(0.0954490115 0.00023074937 0)
(0.0954523867 0.000124123536 0)
(0.0954160944 0.000177070638 0)
(0.0954354455 7.98854818e-05 0)
(0.0953931502 0.000122157529 0)
(0.0954283362 3.48216507e-05 0)
(0.095380292 6.6263953e-05 0)
(0.0954303012 -1.05286426e-05 0)
(0.0953774261 1.00883122e-05 0)
(0.0954427896 -5.56622733e-05 0)
(0.0953847003 -4.6800326e-05 0)
(0.0954656551 -0.000100626389 0)
(0.0954025433 -0.000103347957 0)
(0.0954988429 -0.000145356876 0)
(0.0954310433 -0.000159718757 0)
(0.0955422053 -0.000189603145 0)
(0.0954700036 -0.00021558396 0)
(0.0955955575 -0.000233112033 0)
(0.0955192888 -0.000270617992 0)
(0.0956586668 -0.000275645893 0)
(0.0955787435 -0.000324524694 0)
(0.095731228 -0.000316955128 0)
(0.0956481061 -0.000376984794 0)
(0.0958128612 -0.000356777363 0)
(0.09572703 -0.000427659698 0)
(0.0959031168 -0.000394843004 0)
(0.0958151023 -0.000476206206 0)
(0.0960014791 -0.000430876698 0)
(0.0959118383 -0.000522280013 0)
(0.0961073731 -0.000464601286 0)
(0.0960166817 -0.000565539312 0)
(0.0962201721 -0.000495746805 0)
(0.0961290132 -0.000605653422 0)
(0.0963392067 -0.000524062446 0)
(0.0962481601 -0.000642313767 0)
(0.0964637709 -0.000549328398 0)
(0.0963734035 -0.00067524483 0)
(0.0965931284 -0.000571365308 0)
(0.0965039844 -0.000704213787 0)
(0.0967265176 -0.00059004001 0)
(0.0966391109 -0.000729037866 0)
(0.0968631583 -0.00060526765 0)
(0.0967779654 -0.000749589005 0)
(0.0970022594 -0.000617011133 0)
(0.0969197137 -0.000765795993 0)
(0.0971430282 -0.000625279152 0)
(0.0970635153 -0.000777644602 0)
(0.0972846808 -0.000630123673 0)
(0.0972085342 -0.000785176262 0)
(0.0974264526 -0.000631637156 0)
(0.0973539513 -0.000788485587 0)
(0.097567608 -0.000629949438 0)
(0.097498975 -0.000787716855 0)
(0.0977074495 -0.0006252241 0)
(0.0976428516 -0.000783059528 0)
(0.0978453252 -0.000617654195 0)
(0.0977848746 -0.00077474288 0)
(0.0979806347 -0.000607457407 0)
(0.097924391 -0.00076302987 0)
(0.0981128338 -0.000594870762 0)
(0.0980608082 -0.000748210489 0)
(0.0982414381 -0.000580145127 0)
(0.098193597 -0.000730594809 0)
(0.0983660245 -0.000563539703 0)
(0.0983222948 -0.000710506002 0)
(0.0984862325 -0.000545316755 0)
(0.0984465064 -0.000688273575 0)
(0.0986017629 -0.000525736722 0)
(0.0985659036 -0.000664227038 0)
(0.0987123772 -0.000505053919 0)
(0.0986802241 -0.000638690188 0)
(0.0988178948 -0.000483512828 0)
(0.0987892684 -0.000611976135 0)
(0.0989181897 -0.000461345052 0)
(0.0988928971 -0.000584383127 0)
(0.0990131875 -0.000438766864 0)
(0.0989910262 -0.000556191179 0)
(0.0991028603 -0.000415977358 0)
(0.0990836228 -0.000527659492 0)
(0.0991872232 -0.000393157145 0)
(0.0991707004 -0.000499024623 0)
(0.0992663295 -0.000370467614 0)
(0.0992523133 -0.000470499333 0)
(0.099340266 -0.0003480508 0)
(0.0993285523 -0.000442272133 0)
(0.0994091488 -0.000326029745 0)
(0.0993995393 -0.000414507451 0)
(0.0994731188 -0.000304509268 0)
(0.0994654226 -0.000387346302 0)
(0.0995323374 -0.000283577054 0)
(0.0995263723 -0.000360907392 0)
(0.0995869825 -0.000263304862 0)
(0.0995825757 -0.000335288501 0)
(0.0996372446 -0.000243749807 0)
(0.0996342337 -0.000310568023 0)
(0.099683323 -0.000224955658 0)
(0.0996815564 -0.00028680659 0)
(0.0997254228 -0.000206954029 0)
(0.09972476 -0.000264048678 0)
(0.0997637512 -0.000189765411 0)
(0.0997640633 -0.000242324023 0)
(0.0997985159 -0.000173400109 0)
(0.0997996857 -0.000221648471 0)
(0.099829928 -0.000157859981 0)
(0.0998318463 -0.000202025072 0)
(0.099858199 -0.000143140872 0)
(0.0998607633 -0.000183447669 0)
(0.0998835372 -0.00012923471 0)
(0.0998866516 -0.000165903815 0)
(0.0999061448 -0.00011613088 0)
(0.0999097201 -0.000149376301 0)
(0.0999262148 -0.000103816716 0)
(0.0999301696 -0.000133843983 0)
(0.09994393 -9.22772326e-05 0)
(0.0999481911 -0.000119282245 0)
(0.0999594625 -8.14944111e-05 0)
(0.0999639656 -0.000105663272 0)
(0.099972973 -7.14463815e-05 0)
(0.0999776632 -9.29560521e-05 0)
(0.0999846124 -6.21069849e-05 0)
(0.0999894434 -8.11262531e-05 0)
(0.0999945221 -5.34460231e-05 0)
(0.0999994559 -7.01362982e-05 0)
(0.100002836 -4.54300507e-05 0)
(0.100007841 -5.99457147e-05 0)
(0.100009677 -3.8023181e-05 0)
(0.100014731 -5.05114029e-05 0)
(0.100015163 -3.11869797e-05 0)
(0.100020249 -4.1786938e-05 0)
(0.100019397 -2.48784415e-05 0)
(0.10002451 -3.37219987e-05 0)
(0.100022479 -1.90481797e-05 0)
(0.100027626 -2.62687334e-05 0)
(0.100024514 -1.36417197e-05 0)
(0.100029703 -1.93812488e-05 0)
(0.100025634 -8.6085748e-06 0)
(0.100030857 -1.30236305e-05 0)
(0.100026017 -3.91979854e-06 0)
(0.100031207 -7.18407127e-06 0)
(0.100025941 3.83535492e-07 0)
(0.100030892 -1.89820661e-06 0)
(0.100025168 4.26373338e-06 0)
(0.100029981 2.99399037e-06 0)
(0.100023565 7.80220706e-06 0)
(0.10002844 7.44805589e-06 0)
(0.100021343 1.11137599e-05 0)
(0.100026267 1.1462308e-05 0)
(0.100018651 1.42375057e-05 0)
(0.100023562 1.51572924e-05 0)
(0.100015602 1.71554412e-05 0)
(0.100020446 1.85561308e-05 0)
(0.100012273 1.98444305e-05 0)
(0.100017003 2.1664527e-05 0)
(0.100008712 2.228789e-05 0)
(0.100013287 2.44908498e-05 0)
(0.100004949 2.44752341e-05 0)
(0.100009342 2.70395585e-05 0)
(0.100000999 2.6405055e-05 0)
(0.1000052 2.93150321e-05 0)
(0.0999968732 2.80857271e-05 0)
(0.100000885 3.13250647e-05 0)
(0.0999925834 2.95326849e-05 0)
(0.0999964163 3.30814032e-05 0)
(0.0999881431 3.07652415e-05 0)
(0.0999918102 3.45992532e-05 0)
(0.0999835683 3.18041441e-05 0)
(0.0999870836 3.58961083e-05 0)
(0.0999788769 3.26698663e-05 0)
(0.0999822536 3.69904758e-05 0)
(0.099974088 3.33814958e-05 0)
(0.0999773373 3.79007997e-05 0)
(0.099969221 3.39561201e-05 0)
(0.099972352 3.86446512e-05 0)
(0.0999642954 3.44085945e-05 0)
(0.0999673148 3.92382192e-05 0)
(0.0999593293 3.47515561e-05 0)
(0.0999622423 3.96960841e-05 0)
(0.0999543399 3.49955746e-05 0)
(0.09995715 4.00311742e-05 0)
(0.0999493427 3.51493914e-05 0)
(0.0999520525 4.02547779e-05 0)
(0.0999443516 3.52202204e-05 0)
(0.0999469629 4.03766747e-05 0)
(0.0999393785 3.52140741e-05 0)
(0.0999418927 4.04053555e-05 0)
(0.0999344339 3.5136099e-05 0)
(0.0999368523 4.03482622e-05 0)
(0.0999295263 3.49908961e-05 0)
(0.0999318504 4.02120274e-05 0)
(0.0999246629 3.47827979e-05 0)
(0.0999268946 4.0002696e-05 0)
(0.0999198497 3.45160757e-05 0)
(0.0999219911 3.97259113e-05 0)
(0.0999150916 3.41950651e-05 0)
(0.0999171452 3.93870541e-05 0)
(0.0999103927 3.38242105e-05 0)
(0.0999123614 3.89913312e-05 0)
(0.0999057567 3.34080446e-05 0)
(0.0999076437 3.85438192e-05 0)
(0.0999011869 3.29511211e-05 0)
(0.0999029955 3.80494692e-05 0)
(0.0998966862 3.2457934e-05 0)
(0.0998984198 3.7513082e-05 0)
(0.0998922577 3.19328191e-05 0)
(0.0998939194 3.69392516e-05 0)
(0.0998879042 3.13798235e-05 0)
(0.0998894969 3.63322521e-05 0)
(0.0998836284 3.08025921e-05 0)
(0.0998851547 3.56960155e-05 0)
(0.099879433 3.02043335e-05 0)
(0.0998808951 3.5034128e-05 0)
(0.0998753206 2.95878453e-05 0)
(0.0998767202 3.4349804e-05 0)
(0.0998712934 2.8955554e-05 0)
(0.099872632 3.3645882e-05 0)
(0.0998673535 2.83095422e-05 0)
(0.0998686325 3.29248436e-05 0)
(0.0998635029 2.76515945e-05 0)
(0.0998647231 3.2188824e-05 0)
(0.0998597434 2.69831703e-05 0)
(0.099860906 3.1439677e-05 0)
(0.0998560767 2.63057196e-05 0)
(0.0998571807 3.06787946e-05 0)
(0.0998525046 2.56195275e-05 0)
(0.0998535556 2.99077824e-05 0)
(0.0998490298 2.49285904e-05 0)
(0.0998500098 2.91249445e-05 0)
(0.0998456555 2.42190412e-05 0)
(0.0998466232 2.8339001e-05 0)
(0.0998423887 2.35479788e-05 0)
(0.0998431395 2.75099512e-05 0)
(0.0998392361 2.26498423e-05 0)
(0.0998404873 2.67937562e-05 0)
(0.0998357598 2.54582954e-05 0)
(0.0999942379 3.328318e-05 0)
(0.0999984516 2.22112111e-05 0)
(0.0999792216 5.11761913e-05 0)
(0.0999881353 5.2608314e-05 0)
(0.0999596832 5.20515142e-05 0)
(0.0999704966 6.39511431e-05 0)
(0.0999398136 3.77396274e-05 0)
(0.0999499716 5.74078582e-05 0)
(0.0999229021 1.04339347e-05 0)
(0.0999311248 3.60366302e-05 0)
(0.0999120181 -2.81542015e-05 0)
(0.0999170009 2.13079798e-06 0)
(0.0999100566 -7.55527263e-05 0)
(0.0999103136 -4.28297175e-05 0)
(0.0999190276 -0.000127572128 0)
(0.0999136067 -9.62301837e-05 0)
(0.0999402663 -0.00017757467 0)
(0.0999286636 -0.000152605681 0)
(0.099973395 -0.000216926619 0)
(0.0999560671 -0.000203307426 0)
(0.100015841 -0.000237196606 0)
(0.0999943578 -0.00023840558 0)
(0.100063061 -0.000232660863 0)
(0.100039901 -0.000249575385 0)
(0.100109372 -0.000201912861 0)
(0.100087463 -0.000232554076 0)
(0.100149081 -0.000148089904 0)
(0.100131204 -0.000188210962 0)
(0.100177489 -7.78341256e-05 0)
(0.100165785 -0.000122060232 0)
(0.100191286 6.30325093e-08 0)
(0.100187134 -4.26553339e-05 0)
(0.100189022 7.67170269e-05 0)
(0.100193084 4.10046295e-05 0)
(0.100171307 0.000145063087 0)
(0.100183553 0.000119549814 0)
(0.100140498 0.000199987182 0)
(0.10016007 0.000186122196 0)
(0.100100085 0.000238218862 0)
(0.100125366 0.000235968948 0)
(0.100053897 0.000258477793 0)
(0.100082913 0.000266753481 0)
(0.100005688 0.000261237096 0)
(0.100036412 0.000278210629 0)
(0.0999589454 0.000248366778 0)
(0.0999894187 0.000271653804 0)
(0.0999166334 0.00022291748 0)
(0.0999451364 0.000249735229 0)
(0.0998811612 0.000189057756 0)
(0.0999062862 0.000216221453 0)
(0.0998541483 0.000152077982 0)
(0.0998749592 0.000176057916 0)
(0.0998361254 0.000118304716 0)
(0.0998523817 0.000135414745 0)
(0.0998262321 9.46771956e-05 0)
(0.0998385792 0.000101498264 0)
(0.0998220526 8.78227402e-05 0)
(0.0998320558 8.18443111e-05 0)
(0.0998197119 0.000102737862 0)
(0.099829679 8.30690262e-05 0)
(0.0998142713 0.000141455731 0)
(0.0998269202 0.000109384933 0)
(0.0998004452 0.000202207841 0)
(0.0998184915 0.000161302764 0)
(0.099773555 0.000279485483 0)
(0.0997992533 0.000235019334 0)
(0.0997304464 0.000365113154 0)
(0.0997651674 0.000322926722 0)
(0.0996700757 0.000450091288 0)
(0.0997140535 0.000415234571 0)
(0.099593573 0.00052667344 0)
(0.0996459276 0.000502263974 0)
(0.0995037568 0.000590025863 0)
(0.0995628 0.000576702185 0)
(0.0994042599 0.00063894414 0)
(0.0994679819 0.000635084924 0)
(0.0992985579 0.000675444784 0)
(0.0993651291 0.000678034172 0)
(0.0991892152 0.000703474167 0)
(0.0992573387 0.000709249083 0)
(0.0990775555 0.000727292284 0)
(0.0991465788 0.000733728867 0)
(0.0989637846 0.000750147893 0)
(0.0990335853 0.000755966286 0)
(0.0988474183 0.000773648808 0)
(0.098918159 0.000778764277 0)
(0.0987277854 0.000797873719 0)
(0.0987996643 0.000802961601 0)
(0.0986044084 0.000821962166 0)
(0.0986774941 0.000827919369 0)
(0.0984771681 0.000844798401 0)
(0.0985513483 0.00085234391 0)
(0.098346277 0.00086548917 0)
(0.0984212927 0.000875007233 0)
(0.0982121541 0.000883529347 0)
(0.0982876679 0.000895117151 0)
(0.0980752962 0.000898725323 0)
(0.0981509503 0.000912332805 0)
(0.0979362009 0.000911023574 0)
(0.0980116461 0.000926579969 0)
(0.0977953481 0.000920368882 0)
(0.0978702465 0.000937844677 0)
(0.097653216 0.00092664424 0)
(0.0977272329 0.000946052212 0)
(0.0975103049 0.000929679867 0)
(0.0975830995 0.000951046541 0)
(0.0973671496 0.000929291383 0)
(0.0974383733 0.000952628715 0)
(0.0972243208 0.000925313596 0)
(0.0972936199 0.000950604827 0)
(0.0970824165 0.000917616632 0)
(0.0971494383 0.000944815502 0)
(0.0969420525 0.000906107437 0)
(0.0970064506 0.000935143635 0)
(0.0968038543 0.000890725361 0)
(0.0968652934 0.000921510083 0)
(0.0966684504 0.000871438337 0)
(0.0967266096 0.000903867484 0)
(0.0965364669 0.000848241683 0)
(0.0965910432 0.000882197021 0)
(0.0964085226 0.000821158652 0)
(0.0964592331 0.000856508064 0)
(0.0962852237 0.000790241229 0)
(0.0963318083 0.000826838801 0)
(0.0961671589 0.00075557027 0)
(0.0962093818 0.000793256377 0)
(0.0960548953 0.00071725481 0)
(0.0960925454 0.000755856212 0)
(0.0959489755 0.00067543068 0)
(0.0959818655 0.000714760864 0)
(0.0958499158 0.000630258553 0)
(0.0958778794 0.000670118912 0)
(0.0957582052 0.000581921572 0)
(0.0957810939 0.000622103977 0)
(0.0956743046 0.000530622814 0)
(0.0956919852 0.000570913549 0)
(0.0955986469 0.000476582634 0)
(0.095611 0.000516767031 0)
(0.0955316368 0.000420035948 0)
(0.0955385575 0.000459902486 0)
(0.0954736508 0.000361229364 0)
(0.0954750512 0.000400572622 0)
(0.0954250374 0.000300417397 0)
(0.095420848 0.000339039881 0)
(0.0953861122 0.000237857522 0)
(0.0953762874 0.00027557234 0)
(0.0953571297 0.000173784177 0)
(0.0953416833 0.000210444486 0)
(0.0953382373 0.000108381321 0)
(0.0953172792 0.000143912376 0)
(0.0953296044 4.1880026e-05 0)
(0.0953032337 7.62048172e-05 0)
(0.0953319388 -2.52032951e-05 0)
(0.0952997529 7.40022989e-06 0)
(0.0953446285 -9.23212273e-05 0)
(0.0953069978 -6.14126422e-05 0)
(0.095368121 -0.000159226886 0)
(0.0953250603 -0.000130399985 0)
(0.0954023283 -0.000225682525 0)
(0.0953540393 -0.000199108921 0)
(0.0954471873 -0.00029131629 0)
(0.0953939077 -0.000267239755 0)
(0.0955025705 -0.000355746688 0)
(0.0954445463 -0.000334392607 0)
(0.0955682611 -0.000418596705 0)
(0.0955057929 -0.000400168417 0)
(0.0956439658 -0.000479469271 0)
(0.0955774045 -0.000464159863 0)
(0.0957293145 -0.000537952994 0)
(0.0956590487 -0.000525940057 0)
(0.0958238571 -0.000593635982 0)
(0.0957503137 -0.000585073381 0)
(0.0959270654 -0.000646114007 0)
(0.0958507101 -0.000641125991 0)
(0.0960383398 -0.000694998612 0)
(0.0959596697 -0.00069367345 0)
(0.0961570156 -0.000739927004 0)
(0.0960765507 -0.000742310332 0)
(0.0962823703 -0.000780571949 0)
(0.0962006444 -0.000786661637 0)
(0.0964136315 -0.000816650395 0)
(0.096331183 -0.0008263941 0)
(0.0965499845 -0.000847930844 0)
(0.0964673467 -0.000861226268 0)
(0.0966905809 -0.000874239394 0)
(0.0966082734 -0.000890936782 0)
(0.096834549 -0.0008954643 0)
(0.0967530693 -0.000915370441 0)
(0.0969810047 -0.000911558695 0)
(0.0969008208 -0.000934441864 0)
(0.0971290637 -0.000922541287 0)
(0.0970506082 -0.000948136774 0)
(0.0972778545 -0.000928495071 0)
(0.0972015185 -0.000956511138 0)
(0.0974265306 -0.000929564146 0)
(0.0973526598 -0.000959688391 0)
(0.0975742821 -0.000925948905 0)
(0.0975031736 -0.000957854931 0)
(0.0977203459 -0.000917899936 0)
(0.0976522465 -0.000951254135 0)
(0.0978640142 -0.000905710922 0)
(0.0977991203 -0.000940179137 0)
(0.0980046419 -0.000889710887 0)
(0.0979431003 -0.000924964686 0)
(0.0981416509 -0.000870256039 0)
(0.0980835609 -0.0009059784 0)
(0.098274534 -0.000847721533 0)
(0.0982199507 -0.00088361177 0)
(0.0984028564 -0.000822493388 0)
(0.098351794 -0.000858271223 0)
(0.0985262556 -0.000794960863 0)
(0.098478692 -0.000830369589 0)
(0.09864444 -0.000765509404 0)
(0.0986003212 -0.000800318157 0)
(0.0987571866 -0.000734514432 0)
(0.0987164314 -0.000768519589 0)
(0.0988643373 -0.000702335986 0)
(0.0988268419 -0.000735361769 0)
(0.0989657946 -0.000669314323 0)
(0.0989314369 -0.000701212692 0)
(0.0990615165 -0.000635766459 0)
(0.0990301603 -0.000666416394 0)
(0.0991515114 -0.000601983681 0)
(0.0991230101 -0.000631289923 0)
(0.0992358321 -0.000568229879 0)
(0.0992100324 -0.000596121295 0)
(0.099314571 -0.00053474068 0)
(0.0992913155 -0.000561168325 0)
(0.0993878538 -0.000501723322 0)
(0.0993669839 -0.000526658307 0)
(0.0994558346 -0.000469357103 0)
(0.0994371925 -0.000492788389 0)
(0.0995186911 -0.000437794328 0)
(0.0995021214 -0.000459726514 0)
(0.0995766195 -0.000407161711 0)
(0.0995619709 -0.000427612831 0)
(0.0996298302 -0.00037756203 0)
(0.0996169562 -0.000396561458 0)
(0.0996785438 -0.000349075977 0)
(0.0996673038 -0.000366662441 0)
(0.0997229872 -0.000321764138 0)
(0.0997132473 -0.000337983848 0)
(0.0997633907 -0.000295668899 0)
(0.0997550239 -0.000310573852 0)
(0.0997999848 -0.000270816148 0)
(0.0997928717 -0.000284462701 0)
(0.0998329988 -0.000247216834 0)
(0.0998270273 -0.000259664579 0)
(0.0998626593 -0.000224869309 0)
(0.0998577245 -0.000236179634 0)
(0.0998891887 -0.000203762103 0)
(0.099885193 -0.00021399662 0)
(0.0999128026 -0.000183875997 0)
(0.0999096565 -0.000193095569 0)
(0.0999337087 -0.000165185352 0)
(0.0999313313 -0.000173450015 0)
(0.0999521058 -0.000147659068 0)
(0.0999504244 -0.000155028504 0)
(0.099968183 -0.000131261488 0)
(0.0999671324 -0.000137795414 0)
(0.0999821195 -0.000115953274 0)
(0.0999816404 -0.000121711364 0)
(0.0999940841 -0.000101692028 0)
(0.0999941223 -0.000106733472 0)
(0.100004235 -8.84326888e-05 0)
(0.100004741 -9.28155822e-05 0)
(0.100012722 -7.61278868e-05 0)
(0.100013648 -7.99086383e-05 0)
(0.100019683 -6.47282631e-05 0)
(0.100020986 -6.79612339e-05 0)
(0.100025248 -5.41826223e-05 0)
(0.100026888 -5.69202163e-05 0)
(0.100029542 -4.44375149e-05 0)
(0.10003148 -4.67312982e-05 0)
(0.100032684 -3.54358703e-05 0)
(0.100034882 -3.73402148e-05 0)
(0.100034791 -2.7116586e-05 0)
(0.100037209 -2.86949935e-05 0)
(0.100035977 -1.94178239e-05 0)
(0.10003857 -2.07467294e-05 0)
(0.100036348 -1.22882056e-05 0)
(0.100039066 -1.34507236e-05 0)
(0.100035987 -5.70671842e-06 0)
(0.100038783 -6.768402e-06 0)
(0.100034922 2.68998746e-07 0)
(0.100037769 -6.7207637e-07 0)
(0.100033282 5.60210768e-06 0)
(0.100036117 4.88230423e-06 0)
(0.100031118 1.03735941e-05 0)
(0.100033928 9.93996001e-06 0)
(0.100028452 1.46985238e-05 0)
(0.100031241 1.45330964e-05 0)
(0.100025336 1.8657449e-05 0)
(0.100028113 1.87451421e-05 0)
(0.100021827 2.22859631e-05 0)
(0.100024617 2.25965625e-05 0)
(0.10001799 2.55995132e-05 0)
(0.100020812 2.60828723e-05 0)
(0.100013885 2.86068118e-05 0)
(0.100016743 2.9218237e-05 0)
(0.100009559 3.1313851e-05 0)
(0.100012452 3.20205675e-05 0)
(0.100005052 3.37273683e-05 0)
(0.100007972 3.45054037e-05 0)
(0.100000393 3.58573229e-05 0)
(0.10000333 3.66893203e-05 0)
(0.0999956081 3.77174011e-05 0)
(0.0999985506 3.85914768e-05 0)
(0.0999907163 3.93241219e-05 0)
(0.0999936528 4.0232185e-05 0)
(0.0999857353 4.06955724e-05 0)
(0.0999886554 4.16317771e-05 0)
(0.0999806813 4.18503459e-05 0)
(0.0999835759 4.28102954e-05 0)
(0.0999755695 4.28067533e-05 0)
(0.0999784312 4.37870786e-05 0)
(0.0999704149 4.35822871e-05 0)
(0.0999732377 4.45802937e-05 0)
(0.0999652318 4.41933398e-05 0)
(0.0999680113 4.52066653e-05 0)
(0.0999600339 4.46551034e-05 0)
(0.099962767 4.56814615e-05 0)
(0.0999548344 4.49814454e-05 0)
(0.0999575189 4.60185426e-05 0)
(0.0999496451 4.51848035e-05 0)
(0.0999522799 4.62302808e-05 0)
(0.0999444771 4.52762437e-05 0)
(0.0999470614 4.63276835e-05 0)
(0.0999393403 4.52656138e-05 0)
(0.0999418738 4.6320541e-05 0)
(0.0999342432 4.5161716e-05 0)
(0.0999367261 4.62175919e-05 0)
(0.0999291936 4.49724818e-05 0)
(0.0999316261 4.60267137e-05 0)
(0.0999241981 4.47051341e-05 0)
(0.0999265804 4.57551109e-05 0)
(0.0999192624 4.43663288e-05 0)
(0.0999215948 4.54094779e-05 0)
(0.0999143913 4.39622653e-05 0)
(0.0999166739 4.49961198e-05 0)
(0.0999095892 4.34987632e-05 0)
(0.0999118219 4.45210277e-05 0)
(0.0999048597 4.29813079e-05 0)
(0.0999070422 4.39899302e-05 0)
(0.099900206 4.24150709e-05 0)
(0.099902338 4.34082988e-05 0)
(0.0998956309 4.18049095e-05 0)
(0.0998977118 4.278136e-05 0)
(0.0998911369 4.11553713e-05 0)
(0.0998931662 4.21142026e-05 0)
(0.099886726 4.04707151e-05 0)
(0.0998887034 4.14114259e-05 0)
(0.0998824003 3.97549019e-05 0)
(0.0998843255 4.06771873e-05 0)
(0.0998781614 3.90115506e-05 0)
(0.0998800343 3.99152596e-05 0)
(0.099874011 3.82439089e-05 0)
(0.0998758316 3.91290037e-05 0)
(0.0998699507 3.74548553e-05 0)
(0.0998717189 3.83213942e-05 0)
(0.0998659818 3.66469043e-05 0)
(0.0998676977 3.74950401e-05 0)
(0.0998621058 3.58222344e-05 0)
(0.0998637692 3.66521709e-05 0)
(0.0998583238 3.49826046e-05 0)
(0.0998599351 3.57946856e-05 0)
(0.0998546373 3.41296838e-05 0)
(0.0998561945 3.49239005e-05 0)
(0.0998510475 3.32635911e-05 0)
(0.0998525553 3.40414433e-05 0)
(0.0998475559 3.23884858e-05 0)
(0.0998489957 3.31456237e-05 0)
(0.0998441626 3.1488485e-05 0)
(0.0998455953 3.22463549e-05 0)
(0.0998408675 3.06292807e-05 0)
(0.0998420952 3.13043154e-05 0)
(0.0998376533 2.95081867e-05 0)
(0.0998394271 3.04949605e-05 0)
(0.0998346731 2.90493952e-05 0)
(0.0999938366 4.30085496e-05 0)
(0.0999983907 2.93085136e-05 0)
(0.0999791495 6.72868992e-05 0)
(0.0999878155 6.95207193e-05 0)
(0.099960301 7.12041518e-05 0)
(0.0999698283 8.5655476e-05 0)
(0.0999413305 5.72575498e-05 0)
(0.0999488155 7.92526784e-05 0)
(0.0999254568 2.84982898e-05 0)
(0.0999294891 5.43154528e-05 0)
(0.099915261 -1.28842605e-05 0)
(0.0999152327 1.38713214e-05 0)
(0.0999138956 -6.49029568e-05 0)
(0.099908617 -4.12573486e-05 0)
(0.099923252 -0.000123557842 0)
(0.099912126 -0.000107004289 0)
(0.0999444471 -0.000181316064 0)
(0.0999278815 -0.00017701211 0)
(0.099976963 -0.000228199772 0)
(0.0999565096 -0.000240750007 0)
(0.100018299 -0.000254350778 0)
(0.0999964952 -0.000286004716 0)
(0.100064144 -0.00025288206 0)
(0.100044131 -0.000302366521 0)
(0.100109106 -0.000221809893 0)
(0.100094048 -0.000284328528 0)
(0.100147714 -0.00016438891 0)
(0.100140214 -0.0002326683 0)
(0.100175321 -8.80211576e-05 0)
(0.10017705 -0.000153850903 0)
(0.100188715 -2.2834841e-06 0)
(0.100200344 -5.80786751e-05 0)
(0.1001875 8.30668402e-05 0)
(0.100207855 4.24043219e-05 0)
(0.100172185 0.000159576547 0)
(0.100199412 0.000137185186 0)
(0.100144749 0.000221017036 0)
(0.100176547 0.000217714791 0)
(0.100107981 0.000263659783 0)
(0.100142025 0.000278308268 0)
(0.100065196 0.000286098212 0)
(0.100099386 0.000316021371 0)
(0.100019894 0.000288847732 0)
(0.100052449 0.00033037576 0)
(0.0999753626 0.000273917788 0)
(0.100004933 0.000322932796 0)
(0.0999345223 0.000244548404 0)
(0.0999602371 0.000296763385 0)
(0.0998997901 0.000205190153 0)
(0.0999212851 0.000256216099 0)
(0.0998728864 0.000161619324 0)
(0.0998903372 0.000207037977 0)
(0.0998545276 0.00012091605 0)
(0.0998687172 0.00015655514 0)
(0.0998440863 9.10012623e-05 0)
(0.0998564647 0.000113521576 0)
(0.0998393472 7.95807609e-05 0)
(0.0998520285 8.73014896e-05 0)
(0.0998365315 9.2638031e-05 0)
(0.0998521773 8.63113348e-05 0)
(0.0998307656 0.000132888851 0)
(0.099852256 0.000116024462 0)
(0.0998169101 0.000198728927 0)
(0.0998468075 0.000177257558 0)
(0.0997904665 0.000284150444 0)
(0.0998304776 0.000265469548 0)
(0.0997483718 0.000379842241 0)
(0.0997990047 0.000371399448 0)
(0.0996895064 0.000475269231 0)
(0.0997500202 0.000483019 0)
(0.099614765 0.000561140779 0)
(0.0996834124 0.000588329745 0)
(0.0995266479 0.000631488114 0)
(0.0996011345 0.000678170382 0)
(0.0994284872 0.000684668688 0)
(0.099506512 0.000748118462 0)
(0.0993235589 0.000723000745 0)
(0.0994032732 0.000798860789 0)
(0.099214364 0.000751261233 0)
(0.0992946238 0.00083498868 0)
(0.0991022837 0.000774708898 0)
(0.0991826496 0.00086279096 0)
(0.0989876502 0.000797410558 0)
(0.0990681858 0.000887968575 0)
(0.0988701138 0.000821408468 0)
(0.098951097 0.000914109137 0)
(0.0987491034 0.000846821302 0)
(0.0988307704 0.000942306944 0)
(0.0986241892 0.000872567904 0)
(0.0987065886 0.000971760045 0)
(0.0984952557 0.00089723185 0)
(0.0985782222 0.00100081274 0)
(0.0983624965 0.000919677724 0)
(0.0984457051 0.00102788151 0)
(0.0982263089 0.000939272194 0)
(0.0983093534 0.00105193922 0)
(0.0980871784 0.000955790753 0)
(0.098169632 0.00107254371 0)
(0.0979456046 0.000969196775 0)
(0.0980270476 0.00108960435 0)
(0.0978020799 0.000979454935 0)
(0.0978821016 0.00110311557 0)
(0.097657101 0.000986449382 0)
(0.0977352911 0.00111299759 0)
(0.0975111889 0.000989992695 0)
(0.0975871308 0.00111906652 0)
(0.0973649007 0.000989874377 0)
(0.0974381715 0.00112108183 0)
(0.0972188298 0.000985904765 0)
(0.0972890061 0.00111880764 0)
(0.097073599 0.000977936247 0)
(0.0971402636 0.00111205095 0)
(0.0969298508 0.000965865219 0)
(0.0969925998 0.00110067196 0)
(0.0967882386 0.000949626024 0)
(0.0968466866 0.00108457861 0)
(0.0966494206 0.000929185386 0)
(0.0967032036 0.00106371855 0)
(0.0965140531 0.000904540084 0)
(0.0965628315 0.0010380748 0)
(0.0963827849 0.000875716754 0)
(0.0964262456 0.00100766531 0)
(0.0962562517 0.000842771929 0)
(0.0962941097 0.000972543757 0)
(0.0961350693 0.0008057914 0)
(0.0961670701 0.000932799699 0)
(0.0960198287 0.000764889025 0)
(0.0960457503 0.000888557508 0)
(0.0959110909 0.000720205623 0)
(0.0959307468 0.000839974175 0)
(0.0958093837 0.000671908269 0)
(0.0958226267 0.000787236284 0)
(0.0957152014 0.000620189649 0)
(0.0957219253 0.000730556314 0)
(0.0956290062 0.000565266798 0)
(0.0956291458 0.00067016863 0)
(0.0955512315 0.000507378322 0)
(0.0955447589 0.000606325742 0)
(0.0954822853 0.000446780208 0)
(0.095469203 0.000539295101 0)
(0.0954225518 0.000383740621 0)
(0.0954028848 0.000469356718 0)
(0.095372391 0.000318536019 0)
(0.0953461807 0.000396800773 0)
(0.0953321356 0.000251448042 0)
(0.0952994355 0.000321926998 0)
(0.0953020913 0.000182758596 0)
(0.0952629628 0.000245041046 0)
(0.0952825183 0.000112785174 0)
(0.0952370465 0.000166450982 0)
(0.0952735738 4.19038557e-05 0)
(0.0952219178 8.65044861e-05 0)
(0.0952750204 -2.96175099e-05 0)
(0.0952176722 5.73446464e-06 0)