/*--------------------------------*- C++ -*----------------------------------*\
| =========                 |                                                 |
| \\      /  F ield         | OpenFOAM: The Open Source CFD Toolbox           |
|  \\    /   O peration     | Version:  v2012                                 |
|   \\  /    A nd           | Website:  www.openfoam.com                      |
|    \\/     M anipulation  |                                                 |
\*---------------------------------------------------------------------------*/
FoamFile
{
    version     2.0;
    format      ascii;
    class       surfaceScalarField;
    location    "2.74";
    object      phi;
}
// * * * * * * * * * * * * * * * * * * * * * * * * * * * * * * * * * * * * * //

dimensions      [0 3 -1 0 0 0 0];
oriented        oriented;


internalField   nonuniform List<scalar> 
56481
(
6.6672671e-07
-1.22273587e-10
6.66877676e-07
-3.46368352e-10
6.67096998e-07
-5.16698222e-10
6.67349924e-07
-5.85515988e-10
6.67597273e-07
-5.32707746e-10
6.67800397e-07
-3.63936804e-10
6.67925336e-07
-9.7679493e-11
6.67991276e-07
2.20494283e-10
6.67980004e-07
5.60998518e-10
6.67888472e-07
8.83178937e-10
6.67725498e-07
1.1553094e-09
6.6750775e-07
1.35438072e-09
6.67255478e-07
1.46788021e-09
6.66989467e-07
1.49360852e-09
6.66729174e-07
1.43744548e-09
6.66491715e-07
1.31037841e-09
6.66291267e-07
1.12650918e-09
6.66138199e-07
9.0361198e-10
6.66037484e-07
6.65517899e-10
6.65986816e-07
4.43373967e-10
6.65975421e-07
2.72974099e-10
6.65984014e-07
1.88175875e-10
6.65986518e-07
2.11870905e-10
6.65952211e-07
3.49125235e-10
6.65853979e-07
5.87038951e-10
6.65674405e-07
8.9685675e-10
6.65404969e-07
1.24038731e-09
6.65047223e-07
1.57777872e-09
6.64611158e-07
1.87419683e-09
6.6411255e-07
2.10377507e-09
6.63570158e-07
2.25099001e-09
6.63003394e-07
2.31029061e-09
6.62430729e-07
2.28482514e-09
6.61868713e-07
2.18504258e-09
6.61331203e-07
2.02763586e-09
6.608284e-07
1.83486031e-09
6.60365483e-07
1.63384927e-09
6.59940986e-07
1.45520718e-09
6.59545483e-07
1.3302267e-09
6.59161574e-07
1.2865807e-09
6.58766011e-07
1.34309924e-09
6.58333927e-07
1.50501374e-09
6.57843827e-07
1.76138854e-09
6.57281708e-07
2.0860724e-09
6.56643234e-07
2.44251844e-09
6.55933676e-07
2.79150545e-09
6.5516585e-07
3.09961937e-09
6.54356703e-07
3.34593241e-09
6.53523509e-07
3.52488315e-09
6.52680696e-07
3.64470032e-09
6.51838021e-07
3.72230343e-09
6.51000369e-07
3.77676925e-09
6.50168867e-07
3.82370609e-09
6.49342655e-07
3.87217208e-09
6.4852058e-07
3.92452535e-09
6.47702295e-07
3.9784237e-09
6.46888614e-07
4.02959426e-09
6.46081284e-07
4.07411562e-09
6.45282501e-07
4.10955563e-09
6.44494463e-07
4.13499914e-09
6.4371912e-07
4.15043554e-09
6.42958117e-07
4.15604968e-09
6.42212877e-07
4.1517638e-09
6.4148471e-07
4.13711413e-09
6.40774899e-07
4.11135075e-09
6.4008475e-07
4.07360978e-09
6.39415597e-07
4.02304589e-09
6.38768811e-07
3.95888143e-09
6.38145796e-07
3.8804153e-09
6.37548006e-07
3.78700825e-09
6.36976964e-07
3.67807001e-09
6.3643428e-07
3.55307236e-09
6.3592167e-07
3.41156535e-09
6.35440975e-07
3.25319102e-09
6.34994181e-07
3.07770582e-09
6.34583445e-07
2.88499268e-09
6.34211136e-07
2.67506225e-09
6.33879921e-07
2.44805081e-09
6.33592987e-07
2.20416451e-09
6.33354637e-07
1.94350706e-09
6.33168027e-07
1.66538449e-09
6.33035372e-07
1.36937432e-09
6.32958048e-07
1.05643744e-09
6.32936158e-07
7.27581958e-10
6.32967127e-07
3.85277108e-10
6.33041092e-07
3.64038148e-11
6.33189326e-07
-3.30057329e-10
6.33414475e-07
-6.9534924e-10
6.3371587e-07
-1.06721608e-09
6.34093191e-07
-1.44489508e-09
6.34546259e-07
-1.82627185e-09
6.35074884e-07
-2.20931964e-09
6.35678445e-07
-2.59144083e-09
6.36355732e-07
-2.96955773e-09
6.37104867e-07
-3.34035282e-09
6.37923227e-07
-3.70032255e-09
6.388074e-07
-4.04582245e-09
6.39753192e-07
-4.3731509e-09
6.40755661e-07
-4.67864213e-09
6.41809168e-07
-4.9587805e-09
6.42907448e-07
-5.21031616e-09
6.44043684e-07
-5.43036878e-09
6.45210609e-07
-5.61653465e-09
6.46400606e-07
-5.76696005e-09
6.47605837e-07
-5.88040243e-09
6.48818381e-07
-5.95625008e-09
6.50030376e-07
-5.99454403e-09
6.51234163e-07
-5.99594727e-09
6.52422425e-07
-5.96172012e-09
6.53588309e-07
-5.89366024e-09
6.54725528e-07
-5.79403986e-09
6.5582844e-07
-5.66551526e-09
6.56892108e-07
-5.5110484e-09
6.57912333e-07
-5.33381564e-09
6.58885665e-07
-5.13710946e-09
6.59809396e-07
-4.92426204e-09
6.60681538e-07
-4.6985671e-09
6.61500781e-07
-4.46320463e-09
6.62266447e-07
-4.22119205e-09
6.62978426e-07
-3.97533806e-09
6.63637123e-07
-3.72820208e-09
6.64243387e-07
-3.48207864e-09
6.64798453e-07
-3.23898066e-09
6.65303878e-07
-3.00063872e-09
6.65761477e-07
-2.76849914e-09
6.66173264e-07
-2.54373862e-09
6.66541397e-07
-2.32727463e-09
6.66868161e-07
-2.11977702e-09
6.67155949e-07
-1.92169759e-09
6.67407242e-07
-1.73330013e-09
6.67624549e-07
-1.55468522e-09
6.67810368e-07
-1.38581858e-09
6.67967186e-07
-1.22655913e-09
6.68097496e-07
-1.07668289e-09
6.68203763e-07
-9.35910334e-10
6.68288376e-07
-8.03944257e-10
6.68353644e-07
-6.80501561e-10
6.68401806e-07
-5.65323868e-10
6.68435008e-07
-4.5818367e-10
6.68455251e-07
-3.58920518e-10
6.68464317e-07
-2.6746893e-10
6.68463596e-07
-1.83778006e-10
6.68453739e-07
-1.07643383e-10
6.68434331e-07
-3.86071354e-11
6.68405329e-07
2.28605731e-11
6.68370031e-07
7.8836231e-11
6.68328219e-07
1.28824894e-10
6.68280397e-07
1.72990813e-10
6.68227132e-07
2.11919442e-10
6.68169054e-07
2.46127864e-10
6.68106815e-07
2.7607443e-10
6.68041043e-07
3.02184136e-10
6.67972332e-07
3.24845227e-10
6.67901233e-07
3.4440539e-10
6.67828253e-07
3.61172504e-10
6.67753853e-07
3.75417236e-10
6.67678442e-07
3.87377221e-10
6.67602385e-07
3.97261022e-10
6.67525996e-07
4.05252034e-10
6.67449547e-07
4.11513885e-10
6.67373269e-07
4.16194421e-10
6.67297362e-07
4.19429633e-10
6.67221995e-07
4.21345288e-10
6.67147315e-07
4.22059423e-10
6.67073449e-07
4.21682066e-10
6.6700051e-07
4.20316418e-10
6.66928596e-07
4.18058595e-10
6.66857798e-07
4.14998083e-10
6.66788193e-07
4.11216944e-10
6.66719853e-07
4.06790372e-10
6.6665284e-07
4.01786645e-10
6.66587209e-07
3.9626656e-10
6.66523008e-07
3.90284314e-10
6.66460275e-07
3.83887897e-10
6.66399045e-07
3.77119069e-10
6.66339343e-07
3.70014675e-10
6.66281189e-07
3.62607352e-10
6.66224599e-07
3.54925654e-10
6.66169584e-07
3.46995264e-10
6.66116153e-07
3.38838986e-10
6.66064316e-07
3.30477244e-10
6.6601408e-07
3.21927265e-10
6.65965456e-07
3.13203415e-10
6.65918462e-07
3.04314455e-10
6.65873118e-07
2.95269075e-10
6.65829465e-07
2.86035243e-10
6.65787545e-07
2.76704736e-10
6.65747528e-07
2.66695943e-10
6.6570932e-07
2.58163193e-10
2.40914332e-10
6.66711331e-07
-1.67004234e-10
6.6685832e-07
-4.93357462e-10
6.67090163e-07
-7.48541615e-10
6.67372059e-07
-8.67411861e-10
6.67661804e-07
-8.22452815e-10
6.67917656e-07
-6.19789206e-10
6.68108485e-07
-2.88507819e-10
6.681991e-07
1.29879103e-10
6.68185499e-07
5.74599132e-10
6.68072329e-07
9.96349178e-10
6.67874229e-07
1.35340961e-09
6.67612113e-07
1.61649626e-09
6.67310137e-07
1.76985698e-09
6.66993205e-07
1.81054063e-09
6.66684955e-07
1.7456948e-09
6.66406596e-07
1.58873739e-09
6.66176228e-07
1.35687713e-09
6.66007821e-07
1.07201905e-09
6.659092e-07
7.64139207e-10
6.65879227e-07
4.73346495e-10
6.65905387e-07
2.46814856e-10
6.65963984e-07
1.29578366e-10
6.66023363e-07
1.52491724e-10
6.66047387e-07
3.25101981e-10
6.66002219e-07
6.32206221e-10
6.65862325e-07
1.036751e-09
6.65614068e-07
1.48864383e-09
6.65256799e-07
1.9350484e-09
6.648015e-07
2.32949552e-09
6.64267723e-07
2.63755211e-09
6.6367991e-07
2.83880356e-09
6.63064063e-07
2.92613677e-09
6.62445246e-07
2.90364213e-09
6.61845876e-07
2.78441316e-09
6.61284431e-07
2.58908029e-09
6.60774113e-07
2.3451789e-09
6.6032125e-07
2.08671245e-09
6.5992371e-07
1.85274709e-09
6.59569949e-07
1.68398697e-09
6.59239374e-07
1.61715609e-09
6.58904386e-07
1.67808695e-09
6.5853418e-07
1.87522e-09
6.58099914e-07
2.19565486e-09
6.57580208e-07
2.60577829e-09
6.56965373e-07
3.0573536e-09
6.56258961e-07
3.49791703e-09
6.5547611e-07
3.88247037e-09
6.54639226e-07
4.18281642e-09
6.53772413e-07
4.39169598e-09
6.52896357e-07
4.52075702e-09
6.52025066e-07
4.59359372e-09
6.51165114e-07
4.63672153e-09
6.50317068e-07
4.67175179e-09
6.49478154e-07
4.7110865e-09
6.48644958e-07
4.75772154e-09
6.47815292e-07
4.80808933e-09
6.46988885e-07
4.85600162e-09
6.46167099e-07
4.8959013e-09
6.45352179e-07
4.92447574e-09
6.44546505e-07
4.94067268e-09
6.43752149e-07
4.94479182e-09
6.42970761e-07
4.93743781e-09
6.42203684e-07
4.91884086e-09
6.41452129e-07
4.8886691e-09
6.40717312e-07
4.84616798e-09
6.40000519e-07
4.79040226e-09
6.39303119e-07
4.72044559e-09
6.38626555e-07
4.63544642e-09
6.37972337e-07
4.53463292e-09
6.37342059e-07
4.4172865e-09
6.36737409e-07
4.2827193e-09
6.36160196e-07
4.13028573e-09
6.35612361e-07
3.95940029e-09
6.35095999e-07
3.76955301e-09
6.34613371e-07
3.5603337e-09
6.34166922e-07
3.3314419e-09
6.33759301e-07
3.08268294e-09
6.33393389e-07
2.81396326e-09
6.33072295e-07
2.5252588e-09
6.32799221e-07
2.21658061e-09
6.32576689e-07
1.8879162e-09
6.32406585e-07
1.53947864e-09
6.32290969e-07
1.17205299e-09
6.32232801e-07
7.85750231e-10
6.32237349e-07
3.80729412e-10
6.32316485e-07
-4.27324725e-11
6.32457596e-07
-4.71167866e-10
6.32673321e-07
-9.11074252e-10
6.32965743e-07
-1.35963885e-09
6.33336992e-07
-1.8161436e-09
6.33788582e-07
-2.27786172e-09
6.34321067e-07
-2.74180467e-09
6.34934351e-07
-3.20472522e-09
6.35627669e-07
-3.66287543e-09
6.36399444e-07
-4.11212777e-09
6.37247214e-07
-4.54809243e-09
6.38167593e-07
-4.96620181e-09
6.39156259e-07
-5.36181692e-09
6.40207965e-07
-5.73034797e-09
6.41316583e-07
-6.06739887e-09
6.42475176e-07
-6.36890915e-09
6.43676089e-07
-6.6312817e-09
6.44911072e-07
-6.85151742e-09
6.46171424e-07
-7.02731193e-09
6.4744816e-07
-7.15713874e-09
6.48732191e-07
-7.24028096e-09
6.5001451e-07
-7.27686247e-09
6.51286373e-07
-7.26781027e-09
6.52539472e-07
-7.21481951e-09
6.53766083e-07
-7.12027171e-09
6.54959191e-07
-6.98714709e-09
6.56112578e-07
-6.8189025e-09
6.57220894e-07
-6.61936421e-09
6.58279685e-07
-6.3926065e-09
6.59285399e-07
-6.14282386e-09
6.60235369e-07
-5.87423162e-09
6.61127769e-07
-5.59096698e-09
6.6196156e-07
-5.29699582e-09
6.62736421e-07
-4.9960533e-09
6.63452672e-07
-4.69158956e-09
6.64111194e-07
-4.38672351e-09
6.64713343e-07
-4.08422728e-09
6.65260872e-07
-3.78651037e-09
6.65755858e-07
-3.49562449e-09
6.66200627e-07
-3.21326787e-09
6.66597697e-07
-2.94080924e-09
6.66949728e-07
-2.67930526e-09
6.67259464e-07
-2.42951299e-09
6.6752969e-07
-2.19192355e-09
6.67763203e-07
-1.9668135e-09
6.67962792e-07
-1.75427379e-09
6.68131209e-07
-1.55423552e-09
6.68271135e-07
-1.36648507e-09
6.68385135e-07
-1.19068328e-09
6.68475655e-07
-1.0264301e-09
6.68545049e-07
-8.733379e-10
6.68595556e-07
-7.31009303e-10
6.6862925e-07
-5.99017588e-10
6.68647992e-07
-4.76925852e-10
6.68653391e-07
-3.64318922e-10
6.68646787e-07
-2.60865026e-10
6.68629329e-07
-1.6631981e-10
6.68602178e-07
-8.04927946e-11
6.68566543e-07
-2.97218769e-12
6.68523931e-07
6.54729036e-11
6.68475349e-07
1.27417738e-10
6.684214e-07
1.82774035e-10
6.68362548e-07
2.31842391e-10
6.68299372e-07
2.75095888e-10
6.68232439e-07
3.13061004e-10
6.68162288e-07
3.46225782e-10
6.68089435e-07
3.75036319e-10
6.68014374e-07
3.99906735e-10
6.67937561e-07
4.21217998e-10
6.67859419e-07
4.39314474e-10
6.67780332e-07
4.54504134e-10
6.67700647e-07
4.67062099e-10
6.67620675e-07
4.77234016e-10
6.67540687e-07
4.85239073e-10
6.67460927e-07
4.91274712e-10
6.67381601e-07
4.95519775e-10
6.67302893e-07
4.98138088e-10
6.67224958e-07
4.9927986e-10
6.67147933e-07
4.99084592e-10
6.67071934e-07
4.97680876e-10
6.66997063e-07
4.95188049e-10
6.66923405e-07
4.91716139e-10
6.66851037e-07
4.87366666e-10
6.66780021e-07
4.82232015e-10
6.66710415e-07
4.76396402e-10
6.66642266e-07
4.69936104e-10
6.66575613e-07
4.6291905e-10
6.66510492e-07
4.55405981e-10
6.66446929e-07
4.47450956e-10
6.66384947e-07
4.39101254e-10
6.66324563e-07
4.30398738e-10
6.66265789e-07
4.21380484e-10
6.66208636e-07
4.1207871e-10
6.6615311e-07
4.02521996e-10
6.66099213e-07
3.92735156e-10
6.66046951e-07
3.82739768e-10
6.65996325e-07
3.72553244e-10
6.65947339e-07
3.6218951e-10
6.65899997e-07
3.51655835e-10
6.65854304e-07
3.40962118e-10
6.65810269e-07
3.30070384e-10
6.65767855e-07
3.19118996e-10
6.65727108e-07
3.07442486e-10
6.65687398e-07
2.97873543e-10
2.78639384e-10
6.66719077e-07
-2.1938149e-10
6.66867436e-07
-6.41716706e-10
6.67095898e-07
-9.77003541e-10
6.6737049e-07
-1.14200321e-09
6.6765098e-07
-1.10294256e-09
6.6789825e-07
-8.67059387e-10
6.68079445e-07
-4.69702991e-10
6.68173303e-07
3.60214129e-11
6.68166905e-07
5.80996785e-10
6.68063309e-07
1.09994464e-09
6.67875819e-07
1.54090006e-09
6.67624433e-07
1.8678825e-09
6.67332516e-07
2.06177393e-09
6.67024294e-07
2.11876261e-09
6.66722914e-07
2.04707452e-09
6.66449229e-07
1.86242255e-09
6.66221029e-07
1.58507672e-09
6.66052014e-07
1.24103406e-09
6.65949948e-07
8.66205549e-10
6.65914295e-07
5.08999488e-10
6.6593436e-07
2.26749806e-10
6.65988027e-07
7.59117522e-11
6.66042048e-07
9.84705471e-11
6.66060406e-07
3.06743951e-10
6.66011441e-07
6.81171534e-10
6.65871554e-07
1.17663736e-09
6.65628135e-07
1.73206318e-09
6.65280265e-07
2.282918e-09
6.64837643e-07
2.77211738e-09
6.64318053e-07
3.15714252e-09
6.63744186e-07
3.41267065e-09
6.63140623e-07
3.52969963e-09
6.62531414e-07
3.51285151e-09
6.61938309e-07
3.37751822e-09
6.61379406e-07
3.14798243e-09
6.6086786e-07
2.85672576e-09
6.60410425e-07
2.54414657e-09
6.60005904e-07
2.25726889e-09
6.59643897e-07
2.04599411e-09
6.59304778e-07
1.95627433e-09
6.58961718e-07
2.02114711e-09
6.58584811e-07
2.25212705e-09
6.58146348e-07
2.63411813e-09
6.57625847e-07
3.12627879e-09
6.57013661e-07
3.66954006e-09
6.56312295e-07
4.19928285e-09
6.55535079e-07
4.65968638e-09
6.54702493e-07
5.0154026e-09
6.53837204e-07
5.25698493e-09
6.52959286e-07
5.39867516e-09
6.52082965e-07
5.46991407e-09
6.51215606e-07
5.50408121e-09
6.50358777e-07
5.52858056e-09
6.49510588e-07
5.55927551e-09
6.48668197e-07
5.60011241e-09
6.47829638e-07
5.64664851e-09
6.46994592e-07
5.69104802e-09
6.46164239e-07
5.72625346e-09
6.45340625e-07
5.74808991e-09
6.44525977e-07
5.7553204e-09
6.43722275e-07
5.74849465e-09
6.42931116e-07
5.72859675e-09
6.42153805e-07
5.69615158e-09
6.41391515e-07
5.65095938e-09
6.40645422e-07
5.59226037e-09
6.3991678e-07
5.51904429e-09
6.39206935e-07
5.43029102e-09
6.38517321e-07
5.32506017e-09
6.37849459e-07
5.2024954e-09
6.37204959e-07
5.06178568e-09
6.36585546e-07
4.90213264e-09
6.3599307e-07
4.72276167e-09
6.35429528e-07
4.52294219e-09
6.34897076e-07
4.30200522e-09
6.34398039e-07
4.05937029e-09
6.33934925e-07
3.79455605e-09
6.3351043e-07
3.5071781e-09
6.3312744e-07
3.1969538e-09
6.32789003e-07
2.86369525e-09
6.32498282e-07
2.50730155e-09
6.3225844e-07
2.12775811e-09
6.3207272e-07
1.72519847e-09
6.31944719e-07
1.3000541e-09
6.31877341e-07
8.5312897e-10
6.31871438e-07
3.86631877e-10
6.31926327e-07
-9.76212761e-11
6.32054388e-07
-5.99228635e-10
6.32258042e-07
-1.11472839e-09
6.32540848e-07
-1.64244465e-09
6.329047e-07
-2.17999585e-09
6.33351366e-07
-2.72452781e-09
6.33882122e-07
-3.27256098e-09
6.3449746e-07
-3.82006323e-09
6.35197056e-07
-4.36247084e-09
6.35979696e-07
-4.89476845e-09
6.36843189e-07
-5.41158463e-09
6.37784293e-07
-5.90730641e-09
6.38798692e-07
-6.37621574e-09
6.39880983e-07
-6.81263913e-09
6.41024714e-07
-7.21112981e-09
6.42222454e-07
-7.56664871e-09
6.43465901e-07
-7.87472926e-09
6.44746035e-07
-8.13165114e-09
6.46053291e-07
-8.33456808e-09
6.4737777e-07
-8.48161714e-09
6.48709452e-07
-8.57196307e-09
6.50038426e-07
-8.60583687e-09
6.51355103e-07
-8.58448744e-09
6.52650415e-07
-8.51013153e-09
6.53915988e-07
-8.38584418e-09
6.5514428e-07
-8.21543972e-09
6.56328689e-07
-8.00331101e-09
6.57463611e-07
-7.75428664e-09
6.58544478e-07
-7.4734729e-09
6.59567745e-07
-7.16609072e-09
6.60530862e-07
-6.83734905e-09
6.61432217e-07
-6.49232183e-09
6.62271056e-07
-6.13583514e-09
6.63047399e-07
-5.77239658e-09
6.63761943e-07
-5.4061336e-09
6.64415964e-07
-5.04074414e-09
6.65011221e-07
-4.67948442e-09
6.65549868e-07
-4.32515669e-09
6.66034363e-07
-3.98012019e-09
6.66467395e-07
-3.64629973e-09
6.66851802e-07
-3.32521652e-09
6.67190516e-07
-3.01801871e-09
6.67486517e-07
-2.72551365e-09
6.67742806e-07
-2.44821258e-09
6.67962359e-07
-2.18636735e-09
6.68148088e-07
-1.94000282e-09
6.68302812e-07
-1.70895912e-09
6.68429262e-07
-1.49293466e-09
6.68530083e-07
-1.29150488e-09
6.68607776e-07
-1.10412284e-09
6.68664714e-07
-9.30275717e-10
6.68703166e-07
-7.69461824e-10
6.68725302e-07
-6.2115325e-10
6.68733169e-07
-4.84792934e-10
6.68728728e-07
-3.59877611e-10
6.68713795e-07
-2.45932224e-10
6.68689903e-07
-1.42427487e-10
6.68658281e-07
-4.88707965e-11
6.68619048e-07
3.62601609e-11
6.6857192e-07
1.12601289e-10
6.68518487e-07
1.80850377e-10
6.68459691e-07
2.41570472e-10
6.68396227e-07
2.95306663e-10
6.68328704e-07
3.42618397e-10
6.68257717e-07
3.84048244e-10
6.68183824e-07
4.20118956e-10
6.68107542e-07
4.51317823e-10
6.68029354e-07
4.78094941e-10
6.67949705e-07
5.00866675e-10
6.67869005e-07
5.20014809e-10
6.67787623e-07
5.35885986e-10
6.67705891e-07
5.48794619e-10
6.67624099e-07
5.59025394e-10
6.67542503e-07
5.66834938e-10
6.67461323e-07
5.72455482e-10
6.67380745e-07
5.76097045e-10
6.67300933e-07
5.77950667e-10
6.67222023e-07
5.78189649e-10
6.67144135e-07
5.76973016e-10
6.6706737e-07
5.74445603e-10
6.66991817e-07
5.70740424e-10
6.66917555e-07
5.65979068e-10
6.66844648e-07
5.60273063e-10
6.66773157e-07
5.53723525e-10
6.6670313e-07
5.46422589e-10
6.66634613e-07
5.38453871e-10
6.6656764e-07
5.29892108e-10
6.66502241e-07
5.20804511e-10
6.66438441e-07
5.11251278e-10
6.66376257e-07
5.01285337e-10
6.66315702e-07
4.90953734e-10
6.66256784e-07
4.80298137e-10
6.66199508e-07
4.69354564e-10
6.66143876e-07
4.58154639e-10
6.66089885e-07
4.46725362e-10
6.66037535e-07
4.35089738e-10
6.65986823e-07
4.23265854e-10
6.65937744e-07
4.11267909e-10
6.65890297e-07
3.99102978e-10
6.65844477e-07
3.86782111e-10
6.65800285e-07
3.74262424e-10
6.65757706e-07
3.61697702e-10
6.65716834e-07
3.4831515e-10
6.65677543e-07
3.3716414e-10
3.14867535e-10
6.66716754e-07
-2.69435218e-10
6.66868226e-07
-7.93189459e-10
6.67107449e-07
-1.2162262e-09
6.67401141e-07
-1.43569493e-09
6.67705933e-07
-1.40773495e-09
6.67977371e-07
-1.13849665e-09
6.68176154e-07
-6.68486652e-10
6.68275953e-07
-6.37776023e-11
6.68272015e-07
5.84935047e-10
6.68162277e-07
1.20968223e-09
6.67960671e-07
1.7425064e-09
6.67688829e-07
2.13972434e-09
6.67372666e-07
2.37793689e-09
6.67039251e-07
2.45217827e-09
6.66714675e-07
2.37164978e-09
6.66422647e-07
2.15445037e-09
6.66183482e-07
1.82424206e-09
6.66012791e-07
1.41172468e-09
6.65919201e-07
9.59796227e-10
6.65901159e-07
5.27041108e-10
6.65944184e-07
1.83725374e-10
6.66021156e-07
-1.06072447e-12
6.66104012e-07
1.56150093e-11
6.66156129e-07
2.5462679e-10
6.66139132e-07
6.98168074e-10
6.66024158e-07
1.29161136e-09
6.65795059e-07
1.96116234e-09
6.6544985e-07
2.62812734e-09
6.64999105e-07
3.22286195e-09
6.64462825e-07
3.69342292e-09
6.63866753e-07
4.00874286e-09
6.63238921e-07
4.15753154e-09
6.62606887e-07
4.14488566e-09
6.61995682e-07
3.98872258e-09
6.61426167e-07
3.71749785e-09
6.60913388e-07
3.36950454e-09
6.60464764e-07
2.99277027e-09
6.60078387e-07
2.64364599e-09
6.59742098e-07
2.382283e-09
6.59433926e-07
2.26444702e-09
6.59124266e-07
2.33080666e-09
6.58779888e-07
2.59650543e-09
6.58369362e-07
3.04464393e-09
6.57868843e-07
3.62679748e-09
6.57266585e-07
4.27179826e-09
6.56564773e-07
4.9010947e-09
6.55778086e-07
5.44637298e-09
6.54929448e-07
5.86404148e-09
6.54044312e-07
6.14212074e-09
6.53145232e-07
6.29775498e-09
6.52248192e-07
6.36695426e-09
6.51361454e-07
6.39081919e-09
6.50486737e-07
6.40329724e-09
6.49621801e-07
6.42421184e-09
6.4876324e-07
6.45867287e-09
6.4790854e-07
6.50134857e-09
6.47056969e-07
6.54261954e-09
6.46209452e-07
6.57376979e-09
6.45367897e-07
6.58964509e-09
6.44534451e-07
6.58876635e-09
6.43711024e-07
6.57192194e-09
6.42899137e-07
6.54048423e-09
6.42100008e-07
6.4952805e-09
6.41314725e-07
6.43624195e-09
6.4054439e-07
6.36259512e-09
6.39790195e-07
6.27323992e-09
6.39053441e-07
6.16704479e-09
6.38335543e-07
6.04295789e-09
6.37638027e-07
5.90001194e-09
6.36962537e-07
5.73727538e-09
6.36310859e-07
5.5538108e-09
6.35684935e-07
5.34868505e-09
6.35086885e-07
5.12099243e-09
6.34519014e-07
4.8698762e-09
6.33983823e-07
4.59456165e-09
6.33484007e-07
4.29437161e-09
6.33022456e-07
3.9687293e-09
6.32602238e-07
3.61717212e-09
6.32226576e-07
3.23935694e-09
6.31898812e-07
2.83506611e-09
6.31622332e-07
2.40423787e-09
6.31400509e-07
1.9470216e-09
6.31236719e-07
1.46384365e-09
6.31134499e-07
9.55349426e-10
6.31098867e-07
4.22263649e-10
6.31134663e-07
-1.3341771e-10
6.31244896e-07
-7.09461272e-10
6.31433671e-07
-1.30350364e-09
6.31704638e-07
-1.91341109e-09
6.32061143e-07
-2.5365015e-09
6.32505849e-07
-3.16923387e-09
6.33040692e-07
-3.80740376e-09
6.33666822e-07
-4.44619329e-09
6.34384498e-07
-5.0801462e-09
6.35192951e-07
-5.70322166e-09
6.36090265e-07
-6.30889917e-09
6.37073282e-07
-6.89032355e-09
6.38137542e-07
-7.44047571e-09
6.39277266e-07
-7.95236245e-09
6.40485385e-07
-8.41924881e-09
6.41753627e-07
-8.83489064e-09
6.43072646e-07
-9.19374847e-09
6.44432206e-07
-9.49121112e-09
6.45821401e-07
-9.72376368e-09
6.47228914e-07
-9.88913007e-09
6.48643285e-07
-9.98633403e-09
6.50053195e-07
-1.00157462e-08
6.5144773e-07
-9.9790224e-09
6.5281663e-07
-9.87903184e-09
6.54150497e-07
-9.71971109e-09
6.5544096e-07
-9.50590254e-09
6.56680792e-07
-9.24314329e-09
6.57863981e-07
-8.93747553e-09
6.5898575e-07
-8.59524187e-09
6.60042538e-07
-8.22287891e-09
6.61031946e-07
-7.82675744e-09
6.61952656e-07
-7.4130315e-09
6.62804325e-07
-6.98750413e-09
6.63587474e-07
-6.55554555e-09
6.64303366e-07
-6.12202515e-09
6.64953882e-07
-5.69126009e-09
6.65541405e-07
-5.26700767e-09
6.66068707e-07
-4.85245915e-09
6.66538848e-07
-4.45026126e-09
6.66955085e-07
-4.0625365e-09
6.67320797e-07
-3.69092849e-09
6.67639422e-07
-3.33664355e-09
6.67914399e-07
-3.00049031e-09
6.68149118e-07
-2.68293236e-09
6.68346889e-07
-2.3841379e-09
6.68510914e-07
-2.10402793e-09
6.68644278e-07
-1.84232282e-09
6.68749919e-07
-1.59857557e-09
6.68830625e-07
-1.37221103e-09
6.6888908e-07
-1.16257824e-09
6.68927794e-07
-9.6898927e-10
6.68949087e-07
-7.90754736e-10
6.689551e-07
-6.27166369e-10
6.68947593e-07
-4.7728627e-10
6.68927946e-07
-3.40230562e-10
6.68897297e-07
-2.15282773e-10
6.6885663e-07
-1.01761115e-10
6.68806963e-07
7.96810259e-13
6.68751177e-07
9.20462727e-11
6.68689713e-07
1.74065136e-10
6.68623354e-07
2.47209622e-10
6.68552748e-07
3.12176163e-10
6.6847851e-07
3.69545039e-10
6.6840121e-07
4.19917489e-10
6.68321375e-07
4.63883491e-10
6.68239489e-07
5.02004837e-10
6.68155998e-07
5.34809413e-10
6.68071306e-07
5.62787144e-10
6.67985781e-07
5.863915e-10
6.67899756e-07
6.0603936e-10
6.67813532e-07
6.22110071e-10
6.67727378e-07
6.34948185e-10
6.67641538e-07
6.44866353e-10
6.67556225e-07
6.52147381e-10
6.67471632e-07
6.5704835e-10
6.67387926e-07
6.59802803e-10
6.67305253e-07
6.60623961e-10
6.67223737e-07
6.59705624e-10
6.67143485e-07
6.57225631e-10
6.67064585e-07
6.53345596e-10
6.66987112e-07
6.48213389e-10
6.66911127e-07
6.41963501e-10
6.66836682e-07
6.34718628e-10
6.66763816e-07
6.26589357e-10
6.66692563e-07
6.17675907e-10
6.66622948e-07
6.08068796e-10
6.66554991e-07
5.97848565e-10
6.66488708e-07
5.87087423e-10
6.6642411e-07
5.75849897e-10
6.66361202e-07
5.64192602e-10
6.6629999e-07
5.52165806e-10
6.66240474e-07
5.39813996e-10
6.66182653e-07
5.27175566e-10
6.66126524e-07
5.1428421e-10
6.66072081e-07
5.01168677e-10
6.66019317e-07
4.87853527e-10
6.65968224e-07
4.74358168e-10
6.65918794e-07
4.60698274e-10
6.65871015e-07
4.46882221e-10
6.65824872e-07
4.32925306e-10
6.65780351e-07
4.18782611e-10
6.65737398e-07
4.04651405e-10
6.65696036e-07
3.89676835e-10
6.65655668e-07
3.77531954e-10
3.53270726e-10
6.6671761e-07
-3.20444997e-10
6.66870578e-07
-9.46157859e-10
6.67110792e-07
-1.45643976e-09
6.67404614e-07
-1.72951694e-09
6.67709897e-07
-1.7130186e-09
6.67984182e-07
-1.41278086e-09
6.68190796e-07
-8.7510105e-10
6.68306326e-07
-1.79307349e-10
6.6830524e-07
5.86020504e-10
6.68197776e-07
1.31714646e-09
6.67997965e-07
1.94231723e-09
6.67727421e-07
2.41026847e-09
6.67411624e-07
2.69373357e-09
6.67077465e-07
2.78633752e-09
6.66751071e-07
2.69804348e-09
6.66456303e-07
2.44921837e-09
6.66213683e-07
2.0668628e-09
6.66039056e-07
1.58635123e-09
6.65941554e-07
1.05729874e-09
6.659215e-07
5.47094552e-10
6.65969264e-07
1.35961177e-10
6.66060092e-07
-9.18885399e-11
6.66156121e-07
-8.04138885e-11
6.66214479e-07
1.96268828e-10
6.66202203e-07
7.10444325e-10
6.66092774e-07
1.40103993e-09
6.65871134e-07
2.18280231e-09
6.65534783e-07
2.96447824e-09
6.65093195e-07
3.66445063e-09
6.64565333e-07
4.22128418e-09
6.63976183e-07
4.59789344e-09
6.63353351e-07
4.78036329e-09
6.62724267e-07
4.77396996e-09
6.62114044e-07
4.59894523e-09
6.61543784e-07
4.28775796e-09
6.61028986e-07
3.88430296e-09
6.60577865e-07
3.44389084e-09
6.60189596e-07
3.03191521e-09
6.59852894e-07
2.7189847e-09
6.59545983e-07
2.57135791e-09
6.59238785e-07
2.63800474e-09
6.58897337e-07
2.9379532e-09
6.58489641e-07
3.45234073e-09
6.5799145e-07
4.12498854e-09
6.57390558e-07
4.87268934e-09
6.56688532e-07
5.60312113e-09
6.55899413e-07
6.23549158e-09
6.55045731e-07
6.71772402e-09
6.5415295e-07
7.03490168e-09
6.53244015e-07
7.2066897e-09
6.52335518e-07
7.27545128e-09
6.51436343e-07
7.28999424e-09
6.50548693e-07
7.29094735e-09
6.4967061e-07
7.30229497e-09
6.48798789e-07
7.33049396e-09
6.47930693e-07
7.36944485e-09
6.47065513e-07
7.40779865e-09
6.46204094e-07
7.43518924e-09
6.45348265e-07
7.44547415e-09
6.44500105e-07
7.43692658e-09
6.43661448e-07
7.41057854e-09
6.42833729e-07
7.36820314e-09
6.42018067e-07
7.3109427e-09
6.41215443e-07
7.2388657e-09
6.40426858e-07
7.15118036e-09
6.39653417e-07
7.04668095e-09
6.3889636e-07
6.92410169e-09
6.38157064e-07
6.78225375e-09
6.37437044e-07
6.62003249e-09
6.36737959e-07
6.43635974e-09
6.36061635e-07
6.23013467e-09
6.35410075e-07
6.00024533e-09
6.34785471e-07
5.7455967e-09
6.3419021e-07
5.46513663e-09
6.33626879e-07
5.15789355e-09
6.33098256e-07
4.82299368e-09
6.32607321e-07
4.45966431e-09
6.32157243e-07
4.06725109e-09
6.31751372e-07
3.6452279e-09
6.31393231e-07
3.19320706e-09
6.31086497e-07
2.71097152e-09
6.30835008e-07
2.19851086e-09
6.30642779e-07
1.65607218e-09
6.30513853e-07
1.08427544e-09
6.30451874e-07
4.84242881e-10
6.30461225e-07
-1.42768634e-10
6.305468e-07
-7.95036754e-10
6.30713774e-07
-1.47047689e-09
6.3096667e-07
-2.16630772e-09
6.31309389e-07
-2.87921994e-09
6.31745356e-07
-3.60520159e-09
6.3227739e-07
-4.33943766e-09
6.32907483e-07
-5.07628596e-09
6.33636634e-07
-5.80929759e-09
6.34464693e-07
-6.53128001e-09
6.35390193e-07
-7.23439997e-09
6.36410222e-07
-7.91035179e-09
6.37520313e-07
-8.55056721e-09
6.38714405e-07
-9.14645411e-09
6.39984848e-07
-9.68969211e-09
6.41322492e-07
-1.01725349e-08
6.42716838e-07
-1.0588094e-08
6.44156259e-07
-1.09306325e-08
6.45628287e-07
-1.11957909e-08
6.47119931e-07
-1.13807747e-08
6.48618034e-07
-1.14844373e-08
6.50109624e-07
-1.15073355e-08
6.51582249e-07
-1.14516472e-08
6.53024285e-07
-1.13210683e-08
6.54425189e-07
-1.11206154e-08
6.55775694e-07
-1.08564068e-08
6.57067936e-07
-1.05353856e-08
6.58295529e-07
-1.01650682e-08
6.59453568e-07
-9.75328104e-09
6.60538589e-07
-9.30789983e-09
6.61548481e-07
-8.83664999e-09
6.62482373e-07
-8.34692344e-09
6.6334049e-07
-7.84562113e-09
6.64124006e-07
-7.33906093e-09
6.64834886e-07
-6.83290551e-09
6.65475739e-07
-6.3321131e-09
6.66049671e-07
-5.84093989e-09
6.66560157e-07
-5.36294523e-09
6.67010924e-07
-4.90102781e-09
6.67405847e-07
-4.45745975e-09
6.67748866e-07
-4.03394743e-09
6.68043911e-07
-3.63168805e-09
6.68294845e-07
-3.2514248e-09
6.68505428e-07
-2.89351505e-09
6.68679279e-07
-2.55798905e-09
6.68819853e-07
-2.24460165e-09
6.68930418e-07
-1.95288801e-09
6.69014052e-07
-1.68220939e-09
6.69073635e-07
-1.431794e-09
6.69111831e-07
-1.2007749e-09
6.69131068e-07
-9.88226149e-10
6.69133512e-07
-7.9319835e-10
6.69121088e-07
-6.14742617e-10
6.69095738e-07
-4.51936134e-10
6.69059441e-07
-3.03933412e-10
6.6901414e-07
-1.69982246e-10
6.68961626e-07
-4.92471611e-11
6.68902572e-07
5.98514347e-11
6.68837131e-07
1.57486964e-10
6.68766423e-07
2.44772946e-10
6.68691273e-07
3.2235949e-10
6.68612445e-07
3.91004387e-10
6.68530569e-07
4.51421349e-10
6.68446204e-07
5.04281935e-10
6.68359859e-07
5.50228369e-10
6.68271996e-07
5.89868582e-10
6.68183033e-07
6.23771818e-10
6.68093355e-07
6.52465616e-10
6.68003308e-07
6.76438167e-10
6.67913207e-07
6.96140324e-10
6.67823332e-07
7.11985651e-10
6.67733927e-07
7.2435273e-10
6.67645206e-07
7.33586938e-10
6.67557352e-07
7.40001395e-10
6.6747052e-07
7.43880541e-10
6.67384841e-07
7.45481844e-10
6.67300426e-07
7.45039045e-10
6.67217369e-07
7.42763148e-10
6.67135748e-07
7.38846567e-10
6.6705563e-07
7.33463143e-10
6.66977072e-07
7.26771236e-10
6.66900121e-07
7.18914374e-10
6.66824817e-07
7.10023214e-10
6.66751191e-07
7.00215361e-10
6.66679269e-07
6.89597425e-10
6.66609072e-07
6.78265845e-10
6.66540614e-07
6.663066e-10
6.66473905e-07
6.53797018e-10
6.66408948e-07
6.40806417e-10
6.66345745e-07
6.27395734e-10
6.66284292e-07
6.13619135e-10
6.66224581e-07
5.99524517e-10
6.66166604e-07
5.85153041e-10
6.66110347e-07
5.70540633e-10
6.66055798e-07
5.5571771e-10
6.66002942e-07
5.40710108e-10
6.65951762e-07
5.25538176e-10
6.65902241e-07
5.10218615e-10
6.65854363e-07
4.94760886e-10
6.65808105e-07
4.79183315e-10
6.65763449e-07
4.63438482e-10
6.65720356e-07
4.47744424e-10
6.65678892e-07
4.31140921e-10
6.65638866e-07
4.17557793e-10
3.90400172e-10
6.66718994e-07
-3.72738528e-10
6.66876301e-07
-1.10346554e-09
6.67124494e-07
-1.70463254e-09
6.67429227e-07
-2.03425018e-09
6.67746468e-07
-2.03025914e-09
6.68031461e-07
-1.69777406e-09
6.68244375e-07
-1.08801524e-09
6.68355452e-07
-2.90383731e-10
6.68359688e-07
5.81784379e-10
6.68253544e-07
1.42329047e-09
6.68050807e-07
2.14505417e-09
6.67773549e-07
2.68752654e-09
6.67448768e-07
3.01851406e-09
6.67105122e-07
3.1299837e-09
6.66770582e-07
3.03258375e-09
6.6647079e-07
2.74900989e-09
6.66227831e-07
2.30982211e-09
6.66058742e-07
1.75544042e-09
6.65973076e-07