/*--------------------------------*- C++ -*----------------------------------*\
| =========                 |                                                 |
| \\      /  F ield         | OpenFOAM: The Open Source CFD Toolbox           |
|  \\    /   O peration     | Version:  v2012                                 |
|   \\  /    A nd           | Website:  www.openfoam.com                      |
|    \\/     M anipulation  |                                                 |
\*---------------------------------------------------------------------------*/
FoamFile
{
    version     2.0;
    format      ascii;
    class       volVectorField;
    location    "2.74";
    object      U;
}
// * * * * * * * * * * * * * * * * * * * * * * * * * * * * * * * * * * * * * //

dimensions      [0 1 -1 0 0 0 0];


internalField   nonuniform List<vector> 
28416
(
(0.100002032 -1.25727127e-05 0)
(0.100017199 -3.68811483e-05 0)
(0.100045597 -5.51990497e-05 0)
(0.100082821 -6.14693438e-05 0)
(0.100122101 -5.29928323e-05 0)
(0.100157083 -3.0556007e-05 0)
(0.100182175 3.21531317e-06 0)
(0.100196599 4.5623088e-05 0)
(0.100200898 9.02000511e-05 0)
(0.100193088 0.000131595691 0)
(0.100173383 0.000166185595 0)
(0.100144046 0.000191208701 0)
(0.10010798 0.000205053369 0)
(0.100068317 0.000207400831 0)
(0.100028126 0.000199020061 0)
(0.099990178 0.000181395981 0)
(0.0999568424 0.000156454259 0)
(0.0999300062 0.000126604092 0)
(0.0999108958 9.50233488e-05 0)
(0.0998997881 6.58130641e-05 0)
(0.0998957309 4.3644283e-05 0)
(0.0998964108 3.28268964e-05 0)
(0.0998982983 3.61903832e-05 0)
(0.0998970003 5.43180884e-05 0)
(0.0998879822 8.5433198e-05 0)
(0.0998676618 0.00012583147 0)
(0.0998340545 0.000170607877 0)
(0.0997867446 0.000214591139 0)
(0.0997266793 0.00025318926 0)
(0.0996558894 0.000282904039 0)
(0.0995770685 0.000301542017 0)
(0.0994931548 0.000308233033 0)
(0.0994070355 0.000303338527 0)
(0.099321366 0.000288315508 0)
(0.0992384556 0.000265574707 0)
(0.0991601482 0.000238336557 0)
(0.0990876471 0.000210454573 0)
(0.0990212861 0.000186138496 0)
(0.0989602875 0.000169531351 0)
(0.0989026166 0.000164165657 0)
(0.0988451079 0.000172380711 0)
(0.098783965 0.00019480865 0)
(0.0987155233 0.000230061823 0)
(0.0986369954 0.000274789696 0)
(0.0985469653 0.000324227547 0)
(0.0984455439 0.000373170552 0)
(0.0983341946 0.000417098411 0)
(0.0982152925 0.000453092067 0)
(0.0980915435 0.00048025622 0)
(0.0979654237 0.000499545389 0)
(0.0978387848 0.000513109286 0)
(0.0977127035 0.000523433682 0)
(0.0975875695 0.000532589474 0)
(0.0974633315 0.000541810406 0)
(0.0973397826 0.000551454948 0)
(0.0972167829 0.000561253421 0)
(0.0970943669 0.000570662433 0)
(0.0969727427 0.000579162374 0)
(0.0968522253 0.00058641072 0)
(0.096733158 0.00059225251 0)
(0.096615857 0.000596646724 0)
(0.0965005902 0.000599577939 0)
(0.0963875837 0.000600998722 0)
(0.0962770382 0.000600814021 0)
(0.0961691461 0.000598894612 0)
(0.0960641006 0.000595099397 0)
(0.0959620998 0.000589292221 0)
(0.0958633471 0.000581349321 0)
(0.0957680505 0.000571160341 0)
(0.0956764244 0.000558627218 0)
(0.0955886914 0.000543663759 0)
(0.0955050864 0.000526196811 0)
(0.0954258586 0.000506168663 0)
(0.0953512746 0.000483539964 0)
(0.0952816211 0.000458292569 0)
(0.0952172082 0.000430431913 0)
(0.095158375 0.000399988541 0)
(0.0951054991 0.000367018022 0)
(0.0950590133 0.000331595777 0)
(0.0950194648 0.000293802744 0)
(0.0949874309 0.000253661524 0)
(0.0949633591 0.000211144865 0)
(0.0949475246 0.000166187798 0)
(0.0949400426 0.000118774941 0)
(0.094940881 6.90258423e-05 0)
(0.0949488357 1.73856643e-05 0)
(0.0949648599 -3.38158608e-05 0)
(0.0949923689 -8.49787756e-05 0)
(0.0950320424 -0.000137114499 0)
(0.0950830364 -0.000190184064 0)
(0.0951452685 -0.000243853537 0)
(0.0952188876 -0.000297813785 0)
(0.0953038359 -0.000351698307 0)
(0.0953999498 -0.000405076001 0)
(0.0955070043 -0.000457486326 0)
(0.0956246688 -0.000508448205 0)
(0.0957524897 -0.000557460856 0)
(0.0958898949 -0.000604011431 0)
(0.0960361979 -0.000647587722 0)
(0.0961906031 -0.000687693979 0)
(0.096352215 -0.000723868719 0)
(0.0965200496 -0.000755702252 0)
(0.0966930473 -0.000782851733 0)
(0.0968700877 -0.000805052439 0)
(0.0970500074 -0.000822124851 0)
(0.0972316197 -0.000833977844 0)
(0.0974137355 -0.000840608613 0)
(0.0975951859 -0.000842099939 0)
(0.0977748432 -0.000838615201 0)
(0.0979516406 -0.000830391384 0)
(0.0981245892 -0.000817730283 0)
(0.0982927917 -0.000800988184 0)
(0.0984554531 -0.000780564444 0)
(0.0986118872 -0.00075688945 0)
(0.0987615198 -0.000730412556 0)
(0.0989038898 -0.000701590497 0)
(0.0990386459 -0.000670876686 0)
(0.0991655421 -0.000638711785 0)
(0.0992844312 -0.000605515714 0)
(0.099395256 -0.000571681064 0)
(0.0994980406 -0.000537567885 0)
(0.0995928809 -0.000503499948 0)
(0.0996799356 -0.000469762598 0)
(0.0997594164 -0.000436602052 0)
(0.099831579 -0.000404226123 0)
(0.0998967131 -0.000372805661 0)
(0.0999551319 -0.000342474633 0)
(0.100007168 -0.000313329388 0)
(0.10005317 -0.000285431119 0)
(0.100093509 -0.000258813221 0)
(0.100128563 -0.000233489438 0)
(0.100158708 -0.000209455659 0)
(0.100184318 -0.000186687586 0)
(0.100205764 -0.000165144863 0)
(0.100223418 -0.000144782523 0)
(0.100237648 -0.00012555928 0)
(0.100248807 -0.000107436716 0)
(0.100257232 -9.03781395e-05 0)
(0.100263254 -7.43556564e-05 0)
(0.100267185 -5.93603859e-05 0)
(0.100269314 -4.54097845e-05 0)
(0.100269887 -3.25537461e-05 0)
(0.100269091 -2.08714101e-05 0)
(0.100266949 -1.04379554e-05 0)
(0.100263318 -1.18925523e-06 0)
(0.10025841 7.13642905e-06 0)
(0.100252579 1.45691099e-05 0)
(0.100245852 2.11432329e-05 0)
(0.100238251 2.69450478e-05 0)
(0.100229871 3.20596146e-05 0)
(0.100220821 3.65587977e-05 0)
(0.100211196 4.05063099e-05 0)
(0.100201088 4.39595428e-05 0)
(0.100190583 4.69693032e-05 0)
(0.100179758 4.95799011e-05 0)
(0.100168688 5.18296152e-05 0)
(0.100157438 5.37512503e-05 0)
(0.100146065 5.53728334e-05 0)
(0.100134621 5.67185122e-05 0)
(0.100123149 5.78095559e-05 0)
(0.100111686 5.86652841e-05 0)
(0.100100266 5.93037738e-05 0)
(0.100088914 5.97422862e-05 0)
(0.100077656 5.99974397e-05 0)
(0.10006651 6.00852282e-05 0)
(0.100055496 6.00209556e-05 0)
(0.100044628 5.98191415e-05 0)
(0.100033922 5.94934158e-05 0)
(0.100023389 5.90564154e-05 0)
(0.100013041 5.85196942e-05 0)
(0.100002887 5.78936588e-05 0)
(0.0999929368 5.71875431e-05 0)
(0.0999831978 5.64094311e-05 0)
(0.0999736764 5.55663302e-05 0)
(0.0999643782 5.46642913e-05 0)
(0.0999553074 5.37085608e-05 0)
(0.0999464676 5.27037448e-05 0)
(0.0999378614 5.16539663e-05 0)
(0.0999294908 5.05629938e-05 0)
(0.0999213571 4.94343281e-05 0)
(0.0999134619 4.82712416e-05 0)
(0.099905806 4.70767511e-05 0)
(0.0998983918 4.58535874e-05 0)
(0.0998912183 4.46038217e-05 0)
(0.0998842986 4.33297028e-05 0)
(0.0998776017 4.20280209e-05 0)
(0.0998712601 4.07132369e-05 0)
(0.0998648603 3.9305335e-05 0)
(0.0998599803 3.81179111e-05 0)
(0.099851693 3.56765839e-05 0)
(0.100001443 -2.65923715e-05 0)
(0.100014582 -7.75293798e-05 0)
(0.100042847 -0.000116770777 0)
(0.100083186 -0.000133884883 0)
(0.10012814 -0.000124520183 0)
(0.100170538 -8.98400356e-05 0)
(0.100205099 -3.44395531e-05 0)
(0.100226958 3.52922961e-05 0)
(0.100232829 0.000109412053 0)
(0.100222846 0.000178961814 0)
(0.100198781 0.000237352315 0)
(0.100163357 0.000280013716 0)
(0.100120075 0.00030450309 0)
(0.100072706 0.000310439739 0)
(0.100024945 0.000299070217 0)
(0.0999801845 0.000272655306 0)
(0.0999413992 0.000234073177 0)
(0.0999110482 0.000186964442 0)
(0.0998908614 0.000136270901 0)
(0.0998814461 8.85546453e-05 0)
(0.099881834 5.14872955e-05 0)
(0.0998892566 3.24190759e-05 0)
(0.0998994087 3.65077868e-05 0)
(0.0999070102 6.5044862e-05 0)
(0.0999065847 0.000115119915 0)
(0.0998934615 0.000180530244 0)
(0.0998645995 0.000253124204 0)
(0.0998189495 0.000324400717 0)
(0.099757384 0.00038696316 0)
(0.0996823301 0.000435399426 0)
(0.0995972267 0.000466556746 0)
(0.0995059685 0.000479399237 0)
(0.0994124614 0.000474665945 0)
(0.0993203169 0.000454528444 0)
(0.0992326465 0.000422366478 0)
(0.0991518818 0.000382665383 0)
(0.0990795529 0.000340934213 0)
(0.0990160292 0.00030346816 0)
(0.098960304 0.000276793632 0)
(0.098909927 0.00026675396 0)
(0.0988611716 0.000277376912 0)
(0.0988094793 0.000309835435 0)
(0.0987501625 0.000361874183 0)
(0.0986792572 0.000427996176 0)
(0.0985943148 0.000500493569 0)
(0.0984948772 0.000571107647 0)
(0.0983824682 0.000632844123 0)
(0.0982601045 0.000681386495 0)
(0.0981314903 0.000715685451 0)
(0.0980001514 0.000737598076 0)
(0.097868766 0.000750786789 0)
(0.0977388574 0.000759327213 0)
(0.097610872 0.000766520529 0)
(0.0974845322 0.000774253156 0)
(0.0973592817 0.000782981154 0)
(0.0972346519 0.000792169053 0)
(0.0971104544 0.000800887545 0)
(0.0969867954 0.000808301215 0)
(0.0968639772 0.000813907864 0)
(0.0967423703 0.000817538613 0)
(0.096622318 0.000819221454 0)
(0.0965040979 0.000819025651 0)
(0.0963879276 0.000816961985 0)
(0.0962739923 0.000812955606 0)
(0.0961624706 0.00080686803 0)
(0.0960535494 0.000798534075 0)
(0.0959474283 0.00078778993 0)
(0.0958443185 0.000774484834 0)
(0.095744442 0.000758481095 0)
(0.0956480317 0.000739650613 0)
(0.0955553333 0.000717873176 0)
(0.0954666087 0.000693037767 0)
(0.0953821391 0.000665045779 0)
(0.0953022272 0.000633814579 0)
(0.0952271996 0.000599280327 0)
(0.0951574092 0.000561399603 0)
(0.0950932381 0.000520149677 0)
(0.0950351006 0.000475526751 0)
(0.0949834444 0.000427538328 0)
(0.0949387446 0.000376186988 0)
(0.0949014476 0.000321406871 0)
(0.0948718976 0.000263109623 0)
(0.0948503819 0.000201254607 0)
(0.0948372286 0.000135953705 0)
(0.0948329611 6.75322445e-05 0)
(0.0948390365 -3.55191698e-06 0)
(0.0948556 -7.60009574e-05 0)
(0.0948822623 -0.000149418108 0)
(0.0949201535 -0.000224245848 0)
(0.094969875 -0.000300288659 0)
(0.0950315629 -0.000377078715 0)
(0.0951053478 -0.000454155551 0)
(0.0951912886 -0.000530991097 0)
(0.0952893214 -0.00060696607 0)
(0.09539927 -0.000681403387 0)
(0.0955208349 -0.000753586884 0)
(0.0956535785 -0.000822773967 0)
(0.0957969222 -0.000888214237 0)
(0.0959501473 -0.000949170481 0)
(0.0961123988 -0.00100493977 0)
(0.0962826939 -0.00105487467 0)
(0.0964599346 -0.00109840368 0)
(0.0966429236 -0.00113504971 0)
(0.0968303843 -0.00116444558 0)
(0.0970209844 -0.00118634573 0)
(0.0972133618 -0.00120063345 0)
(0.0974061529 -0.00120732325 0)
(0.0975980203 -0.0012065583 0)
(0.0977876795 -0.00119860325 0)
(0.0979739231 -0.00118383287 0)
(0.0981556416 -0.00116271753 0)
(0.0983318397 -0.00113580619 0)
(0.098501648 -0.0011037081 0)
(0.0986643302 -0.00106707387 0)
(0.0988192861 -0.00102657705 0)
(0.0989660499 -0.000982896794 0)
(0.0991042862 -0.000936702081 0)
(0.0992337823 -0.00088863815 0)
(0.0993544385 -0.000839315184 0)
(0.0994662574 -0.000789299326 0)
(0.0995693317 -0.000739106062 0)
(0.0996638321 -0.000689195926 0)
(0.0997499949 -0.000639972271 0)
(0.0998281096 -0.000591780707 0)
(0.0998985084 -0.000544910029 0)
(0.0999615564 -0.000499594329 0)
(0.100017644 -0.000456015242 0)
(0.100067179 -0.000414304521 0)
(0.100110578 -0.000374548687 0)
(0.100148259 -0.00033679575 0)
(0.100180641 -0.000301061922 0)
(0.100208141 -0.00026733864 0)
(0.100231173 -0.000235598105 0)
(0.100250128 -0.00020579641 0)
(0.10026538 -0.000177877048 0)
(0.100277289 -0.000151779129 0)
(0.100286199 -0.000127448096 0)
(0.10029244 -0.000104834112 0)
(0.100296307 -8.38874404e-05 0)
(0.100298065 -6.45651926e-05 0)
(0.100297934 -4.6831455e-05 0)
(0.100296092 -3.06419762e-05 0)
(0.100292695 -1.59420011e-05 0)
(0.100287927 -2.66081753e-06 0)
(0.100282028 9.31028625e-06 0)
(0.100275173 2.01119968e-05 0)
(0.100267457 2.97588692e-05 0)
(0.100258972 3.82905815e-05 0)
(0.1002498 4.58005066e-05 0)
(0.100240022 5.23867184e-05 0)
(0.100229719 5.81373925e-05 0)
(0.100218973 6.31327136e-05 0)
(0.100207861 6.74465579e-05 0)
(0.100196454 7.11460989e-05 0)
(0.100184817 7.42915147e-05 0)
(0.100173011 7.69364551e-05 0)
(0.100161091 7.91287207e-05 0)
(0.100149105 8.09108985e-05 0)
(0.100137099 8.23210085e-05 0)
(0.100125109 8.33931539e-05 0)
(0.10011317 8.41581259e-05 0)
(0.100101312 8.46439247e-05 0)
(0.100089558 8.48761761e-05 0)
(0.100077931 8.48784421e-05 0)
(0.10006645 8.46724573e-05 0)
(0.100055132 8.42783011e-05 0)
(0.100043989 8.3714522e-05 0)
(0.100033034 8.29982199e-05 0)
(0.100022278 8.21451014e-05 0)
(0.10001173 8.11695204e-05 0)
(0.100001397 8.00845155e-05 0)
(0.099991285 7.89018551e-05 0)
(0.0999814009 7.76320939e-05 0)
(0.0999717486 7.62846444e-05 0)
(0.099962332 7.48678618e-05 0)
(0.099953154 7.33891384e-05 0)
(0.0999442169 7.18549985e-05 0)
(0.0999355222 7.02711888e-05 0)
(0.0999270711 6.86427532e-05 0)
(0.0999188643 6.69740821e-05 0)
(0.0999109025 6.52689328e-05 0)
(0.0999031857 6.35303872e-05 0)
(0.0998957153 6.17608442e-05 0)
(0.0998884887 5.99614854e-05 0)
(0.0998815176 5.81337221e-05 0)
(0.0998747649 5.62706867e-05 0)
(0.0998683638 5.43929973e-05 0)
(0.0998618568 5.23848075e-05 0)
(0.099856892 5.07058146e-05 0)
(0.0998481254 4.73272392e-05 0)
(0.100001761 -3.29657311e-05 0)
(0.100015868 -9.63662468e-05 0)
(0.100044248 -0.000146306056 0)
(0.100083668 -0.000170536 0)
(0.100127209 -0.000164085322 0)
(0.100168202 -0.00012804324 0)
(0.100201322 -6.77175996e-05 0)
(0.100222582 7.94312438e-06 0)
(0.100229298 8.91502671e-05 0)
(0.1002207 0.00016681828 0)
(0.100198174 0.0002329181 0)
(0.100164387 0.000281899465 0)
(0.100122701 0.00031082345 0)
(0.100076765 0.000319108536 0)
(0.100030188 0.000308020789 0)
(0.0999863035 0.000279972839 0)
(0.0999480384 0.000238070153 0)
(0.0999178065 0.00018628482 0)
(0.0998973067 0.000130089504 0)
(0.0998871754 7.68443671e-05 0)
(0.099886622 3.52275993e-05 0)
(0.0998931869 1.35623562e-05 0)
(0.0999026042 1.75660102e-05 0)
(0.0999093771 4.91812075e-05 0)
(0.0999081471 0.000105920946 0)
(0.0998946561 0.000181072693 0)
(0.0998661418 0.000265374206 0)
(0.0998215925 0.000349015808 0)
(0.0997617419 0.000423318068 0)
(0.0996887692 0.00048179573 0)
(0.0996058334 0.000520562075 0)
(0.0995165839 0.000538218691 0)
(0.0994247457 0.000535466247 0)
(0.0993338101 0.000514679166 0)
(0.0992468125 0.000479614553 0)
(0.0991661467 0.000435290422 0)
(0.0990933624 0.000387921987 0)
(0.099028933 0.000344700888 0)
(0.0989720224 0.000313200672 0)
(0.0989203494 0.000300344888 0)
(0.0988703114 0.000311087794 0)
(0.0988174663 0.000347141504 0)
(0.0987572882 0.000406201564 0)
(0.0986859909 0.000482061646 0)
(0.0986012133 0.00056574109 0)
(0.0985024166 0.000647401872 0)
(0.0983908882 0.000718531983 0)
(0.0982693392 0.000773732657 0)
(0.098141203 0.000811554412 0)
(0.0980098461 0.000834162575 0)
(0.0978779233 0.00084604005 0)
(0.0977470465 0.000852266144 0)
(0.0976178108 0.000857002789 0)
(0.0974900904 0.000862648057 0)
(0.0973634424 0.000869783606 0)
(0.0972374562 0.000877717197 0)
(0.0971119513 0.000885246678 0)
(0.0969870115 0.000891294652 0)
(0.0968629068 0.000895226104 0)
(0.0967399799 0.000896853351 0)
(0.0966185562 0.000896258375 0)
(0.0964989036 0.000893586198 0)
(0.096381234 0.000888909807 0)
(0.096265727 0.000882190968 0)
(0.0961525549 0.000873307136 0)
(0.0960418987 0.000862099227 0)
(0.0959339539 0.000848408047 0)
(0.0958289301 0.000832089027 0)
(0.0957270493 0.000813011211 0)
(0.0956285461 0.00079105123 0)
(0.0955336704 0.000766089557 0)
(0.0954426902 0.000738010914 0)
(0.0953558941 0.000706707515 0)
(0.0952735934 0.000672083118 0)
(0.0951961243 0.000634056442 0)
(0.0951238494 0.000592563371 0)
(0.0950571588 0.000547557824 0)
(0.0949964711 0.000499010971 0)
(0.0949422322 0.000446908065 0)
(0.094894909 0.000391244648 0)
(0.0948549777 0.000332024263 0)
(0.0948229181 0.000269297479 0)
(0.0947992405 0.00020321676 0)
(0.0947844809 0.00013403184 0)
(0.0947789754 6.20325682e-05 0)
(0.0947825405 -1.24755509e-05 0)
(0.0947959627 -8.97724828e-05 0)
(0.0948206413 -0.000169183945 0)
(0.0948570654 -0.000250299773 0)
(0.0949055003 -0.000332876041 0)
(0.0949662247 -0.000416498346 0)
(0.0950394919 -0.000500636394 0)
(0.0951254416 -0.000584681966 0)
(0.0952240849 -0.000667944478 0)
(0.0953353083 -0.00074966376 0)
(0.0954588601 -0.000829027356 0)
(0.0955943345 -0.000905185808 0)
(0.095741165 -0.000977271822 0)
(0.0958986222 -0.001044424 0)
(0.0960658153 -0.00110581335 0)
(0.0962416998 -0.00116067125 0)
(0.0964250916 -0.00120831686 0)
(0.0966146858 -0.00124818187 0)
(0.0968090821 -0.00127983099 0)
(0.0970068133 -0.00130297671 0)
(0.0972063778 -0.00131748782 0)
(0.0974062732 -0.00132339145 0)
(0.0976050297 -0.00132086899 0)
(0.0978012414 -0.0013102463 0)
(0.0979935944 -0.00129197905 0)
(0.0981808908 -0.00126663417 0)
(0.0983620665 -0.00123486848 0)
(0.0985362042 -0.00119740578 0)
(0.0987025403 -0.00115501352 0)
(0.0988604666 -0.00110848025 0)
(0.0990095277 -0.00105859472 0)
(0.0991494133 -0.00100612731 0)
(0.0992799488 -0.000951814326 0)
(0.0994010823 -0.000896345337 0)
(0.0995128708 -0.0008403536 0)
(0.0996154655 -0.000784409437 0)
(0.0997090973 -0.000729016387 0)
(0.0997940627 -0.00067460974 0)
(0.0998707105 -0.000621557134 0)
(0.0999394295 -0.000570160762 0)
(0.100000637 -0.000520660933 0)
(0.100054768 -0.000473241027 0)
(0.100102266 -0.000428033262 0)
(0.10014358 -0.000385124376 0)
(0.100179162 -0.00034456097 0)
(0.100209457 -0.000306355004 0)
(0.100234892 -0.000270491434 0)
(0.100255882 -0.00023693571 0)
(0.100272831 -0.000205636474 0)
(0.100286131 -0.000176527255 0)
(0.100296149 -0.000149527323 0)
(0.100303222 -0.000124541894 0)
(0.100307685 -0.000101472868 0)
(0.100309858 -8.02205929e-05 0)
(0.100310038 -6.06823201e-05 0)
(0.100308514 -4.27759891e-05 0)
(0.100305556 -2.64451923e-05 0)
(0.100301383 -1.16415194e-05 0)
(0.100296082 1.68440503e-06 0)
(0.100289585 1.37023393e-05 0)
(0.100281992 2.44910432e-05 0)
(0.10027354 3.41196067e-05 0)
(0.100264346 4.26627443e-05 0)
(0.1002545 5.02015505e-05 0)
(0.10024409 5.68189079e-05 0)
(0.100233203 6.25961459e-05 0)
(0.10022192 6.76095966e-05 0)
(0.100210317 7.19303308e-05 0)
(0.100198463 7.56241579e-05 0)
(0.100186422 7.87510366e-05 0)
(0.100174252 8.13649755e-05 0)
(0.100162007 8.35144327e-05 0)
(0.100149732 8.52428614e-05 0)
(0.100137469 8.65893105e-05 0)
(0.100125253 8.75890461e-05 0)
(0.100113115 8.82741331e-05 0)
(0.10010108 8.86739298e-05 0)
(0.100089171 8.88154647e-05 0)
(0.100077407 8.87236966e-05 0)
(0.100065805 8.84216865e-05 0)
(0.100054378 8.79307102e-05 0)
(0.100043139 8.72703353e-05 0)
(0.100032099 8.64584776e-05 0)
(0.100021267 8.55114502e-05 0)
(0.100010652 8.44440145e-05 0)
(0.100000259 8.32694385e-05 0)
(0.0999900963 8.19995689e-05 0)
(0.0999801674 8.06449204e-05 0)
(0.0999704768 7.92147784e-05 0)
(0.0999610274 7.77173174e-05 0)
(0.0999518216 7.61597235e-05 0)
(0.099942861 7.45483143e-05 0)
(0.0999341464 7.28886453e-05 0)
(0.0999256784 7.11855941e-05 0)
(0.0999174568 6.94434121e-05 0)
(0.0999094815 6.76657424e-05 0)
(0.0999017518 6.58555754e-05 0)
(0.0998942682 6.40152679e-05 0)
(0.0998870271 6.21459944e-05 0)
(0.0998800387 6.02495518e-05 0)
(0.0998732658 5.83192022e-05 0)
(0.0998668393 5.63793296e-05 0)
(0.0998603189 5.43111142e-05 0)
(0.0998553344 5.26019209e-05 0)
(0.0998467624 4.91825274e-05 0)
(0.100001633 -4.22038673e-05 0)
(0.100015601 -0.000124056476 0)
(0.10004483 -0.0001895846 0)
(0.100086528 -0.000222429623 0)
(0.100133521 -0.000215721599 0)
(0.100178389 -0.000170708409 0)
(0.100214788 -9.41333353e-05 0)
(0.100237778 3.25733754e-06 0)
(0.100245117 0.000108746402 0)
(0.100236318 0.000209283335 0)
(0.100212247 0.000294728991 0)
(0.100175776 0.000358183655 0)
(0.100130639 0.000395942463 0)
(0.10008089 0.000407254519 0)
(0.100030576 0.000393676308 0)
(0.0999834785 0.000358201446 0)
(0.0999429352 0.000304704578 0)
(0.0999117029 0.000238167597 0)
(0.0998916987 0.000165494508 0)
(0.0998835727 9.60405725e-05 0)
(0.0998862049 4.09477161e-05 0)
(0.0998963555 1.11925223e-05 0)
(0.0999096194 1.47854523e-05 0)
(0.0999210947 5.43637689e-05 0)
(0.0999250286 0.000126229607 0)
(0.0999160184 0.000221599634 0)
(0.0998905338 0.000328682606 0)
(0.0998472573 0.000434981988 0)
(0.0997869361 0.000529448081 0)
(0.0997119992 0.000603869076 0)
(0.0996260194 0.000653367832 0)
(0.0995331494 0.000676213184 0)
(0.0994376469 0.000673279484 0)
(0.0993435219 0.000647486084 0)
(0.0992542756 0.000603441009 0)
(0.0991726673 0.000547328811 0)
(0.0991004544 0.000486883094 0)
(0.0990381026 0.000431159484 0)
(0.0989845628 0.000389816957 0)
(0.0989372298 0.000371783251 0)
(0.0988921296 0.000383502646 0)
(0.0988443699 0.000427259902 0)
(0.0987888732 0.000500177588 0)
(0.0987212817 0.000594368938 0)
(0.0986387951 0.000698405324 0)
(0.0985406872 0.00079979225 0)
(0.0984283387 0.000887751642 0)
(0.0983047728 0.000955469605 0)
(0.0981738431 0.00100113334 0)
(0.098039332 0.00102749842 0)
(0.0979042217 0.00104025155 0)
(0.0977703232 0.0010458425 0)
(0.0976383024 0.00104957385 0)
(0.0975080073 0.00105452575 0)
(0.097378916 0.00106147876 0)
(0.0972505278 0.00106959002 0)
(0.0971225874 0.0010773554 0)
(0.0969951295 0.00108341535 0)
(0.0968683967 0.00108696412 0)
(0.0967427174 0.00108776383 0)
(0.0966184073 0.00108592442 0)
(0.0964957235 0.00108164302 0)
(0.0963748652 0.00107503067 0)
(0.0962559989 0.00106605942 0)
(0.0961392849 0.00105459352 0)
(0.0960248939 0.0010404479 0)
(0.0959130136 0.00102343305 0)
(0.0958038484 0.00100337368 0)
(0.095697619 0.000980108185 0)
(0.0955945633 0.000953481548 0)
(0.0954949383 0.000923340745 0)
(0.0953990233 0.000889535237 0)
(0.0953071231 0.000851920873 0)
(0.0952195696 0.000810364527 0)
(0.0951367234 0.000764747663 0)
(0.0950589747 0.000714968325 0)
(0.0949867428 0.000660941905 0)
(0.094920475 0.000602601174 0)
(0.0948606441 0.00053989613 0)
(0.0948077434 0.000472795034 0)
(0.09476228 0.000401287994 0)
(0.0947247659 0.000325397217 0)
(0.094695713 0.000245182622 0)
(0.0946756065 0.000160729816 0)
(0.0946650525 7.21704626e-05 0)
(0.0946649035 -2.01753413e-05 0)
(0.0946757643 -0.000115510893 0)
(0.0946980498 -0.000213571744 0)
(0.094732378 -0.000314049768 0)
(0.0947793264 -0.000416478849 0)
(0.0948393349 -0.000520266992 0)
(0.0949127418 -0.00062473288 0)
(0.0949997851 -0.000729101643 0)
(0.0951005758 -0.000832497306 0)
(0.0952150793 -0.000933954883 0)
(0.0953430978 -0.00103244032 0)
(0.0954842535 -0.0011268728 0)
(0.0956379763 -0.00121615175 0)
(0.0958034979 -0.00129918779 0)
(0.0959798529 -0.00137493587 0)
(0.0961658872 -0.00144242938 0)
(0.0963602739 -0.00150081342 0)
(0.0965615376 -0.00154937563 0)
(0.0967680846 -0.00158757239 0)
(0.096978239 -0.00161504887 0)
(0.0971902829 -0.00163165117 0)
(0.0974024985 -0.00163743007 0)
(0.0976132093 -0.00163263601 0)
(0.0978208192 -0.001617706 0)
(0.098023847 -0.00159324357 0)
(0.0982209549 -0.00155999328 0)
(0.0984109695 -0.00151881175 0)
(0.0985928961 -0.00147063683 0)
(0.098765925 -0.00141645671 0)
(0.0989294319 -0.00135728045 0)
(0.099082972 -0.0012941112 0)
(0.0992262696 -0.00122792262 0)
(0.0993592035 -0.00115963949 0)
(0.0994817913 -0.00109012235 0)
(0.0995941708 -0.00102015625 0)
(0.0996965821 -0.000950443311 0)
(0.0997893489 -0.000881598853 0)
(0.0998728618 -0.000814150566 0)
(0.0999475615 -0.000748540252 0)
(0.100013925 -0.000685127579 0)
(0.100072452 -0.000624195239 0)
(0.100123656 -0.000565954787 0)
(0.100168054 -0.000510552924 0)
(0.100206162 -0.00045807863 0)
(0.100238482 -0.000408571755 0)
(0.100265504 -0.000362031912 0)
(0.100287699 -0.000318423885 0)
(0.100305521 -0.000277681597 0)
(0.100319398 -0.000239715647 0)
(0.100329739 -0.000204423499 0)
(0.100336935 -0.000171694653 0)
(0.100341352 -0.00014141051 0)
(0.100343323 -0.000113453603 0)
(0.100343152 -8.77287274e-05 0)
(0.100341081 -6.41606883e-05 0)
(0.100337279 -4.266427e-05 0)
(0.100331881 -2.31389695e-05 0)
(0.100325034 -5.46800047e-06 0)
(0.100317064 1.04145733e-05 0)
(0.100308247 2.45692212e-05 0)
(0.100298645 3.71983226e-05 0)
(0.100288346 4.84229203e-05 0)
(0.100277459 5.83441893e-05 0)
(0.100266073 6.70678094e-05 0)
(0.100254269 7.46963404e-05 0)
(0.100242122 8.13269201e-05 0)
(0.100229702 8.70501192e-05 0)
(0.100217073 9.19496346e-05 0)
(0.100204293 9.61027833e-05 0)
(0.100191415 9.95806379e-05 0)
(0.100178486 0.000102448078 0)
(0.100165547 0.000104764058 0)
(0.100152639 0.000106581983 0)
(0.100139795 0.000107950126 0)
(0.100127045 0.000108912094 0)
(0.100114417 0.000109507302 0)
(0.100101933 0.000109771454 0)
(0.100089615 0.000109736975 0)
(0.100077478 0.000109433396 0)
(0.100065539 0.000108887675 0)
(0.100053808 0.000108124456 0)
(0.100042297 0.000107166278 0)
(0.100031013 0.000106033743 0)
(0.100019963 0.000104745648 0)
(0.100009153 0.000103319101 0)
(0.0999985873 0.000101769618 0)
(0.0999882688 0.000100111218 0)
(0.0999782004 9.83565136e-05 0)
(0.099968384 9.65167965e-05 0)
(0.0999588209 9.4602129e-05 0)
(0.0999495119 9.26214284e-05 0)
(0.0999404573 9.05825459e-05 0)
(0.0999316572 8.84923412e-05 0)
(0.0999231111 8.63567462e-05 0)
(0.0999148184 8.41808155e-05 0)
(0.0999067782 8.19687648e-05 0)
(0.0998989892 7.97239595e-05 0)
(0.0998914509 7.7449013e-05 0)
(0.0998841587 7.51452103e-05 0)
(0.0998771217 7.28148606e-05 0)
(0.0998702993 7.04501827e-05 0)
(0.0998638237 6.80820103e-05 0)
(0.0998572267 6.55662337e-05 0)
(0.0998521838 6.34979671e-05 0)
(0.0998432654 5.9357512e-05 0)
(0.100001681 -5.09688699e-05 0)
(0.100015871 -0.000150146263 0)
(0.100045306 -0.000230721552 0)
(0.100087065 -0.000273483231 0)
(0.100134041 -0.000270211109 0)
(0.100179074 -0.000221900765 0)
(0.100216278 -0.000135926324 0)
(0.100241248 -2.46887104e-05 0)
(0.100250079 9.64397206e-05 0)
(0.100241528 0.000212554232 0)
(0.100217718 0.000311737218 0)
(0.100181518 0.000385858127 0)
(0.100136517 0.000430594391 0)
(0.100086739 0.000444984179 0)
(0.10003623 0.000430661502 0)
(0.0999887801 0.000390901138 0)
(0.099947757 0.000330018698 0)
(0.0999159522 0.000253652363 0)
(0.0998953426 0.000169717748 0)
(0.0998867183 8.90237693e-05 0)
(0.099889403 2.45402542e-05 0)
(0.0999009038 -1.11613759e-05 0)
(0.0999164661 -8.4891928e-06 0)
(0.0999296085 3.57737715e-05 0)
(0.0999342284 0.000117809172 0)
(0.09992583 0.000227882782 0)
(0.0999013212 0.000352330487 0)
(0.0998593114 0.000476560703 0)
(0.0998003809 0.000587605468 0)
(0.099726794 0.000675744448 0)
(0.099641984 0.000735131392 0)
(0.0995500146 0.000763603975 0)
(0.0994551065 0.000762053128 0)
(0.09936127 0.000733752382 0)
(0.0992720293 0.000683925728 0)
(0.0991901863 0.000619616947 0)
(0.0991175826 0.000549680118 0)
(0.0990548448 0.000484531154 0)
(0.0990011133 0.000435334617 0)
(0.0989538736 0.000412509959 0)
(0.0989090959 0.000423727135 0)
(0.0988617689 0.000471930298 0)
(0.0988067183 0.000554101797 0)
(0.0987395251 0.000661332089 0)
(0.0986573337 0.000780413909 0)
(0.098559338 0.000896679919 0)
(0.098446815 0.000997302378 0)
(0.0983226991 0.00107403841 0)
(0.0981908121 0.00112456698 0)
(0.0980549715 0.00115206228 0)
(0.0979182426 0.00116328694 0)
(0.0977825354 0.00116599959 0)
(0.0976486024 0.00116663286 0)
(0.0975163494 0.0011689592 0)
(0.0973852811 0.00117396439 0)
(0.0972548994 0.00118064812 0)
(0.0971249399 0.00118718952 0)
(0.0969954239 0.0011919354 0)
(0.0968665819 0.00119390989 0)
(0.096738732 0.00119283943 0)
(0.0966121793 0.00118888617 0)
(0.0964871688 0.00118232663 0)
(0.0963638859 0.00117333508 0)
(0.0962424812 0.00116191464 0)
(0.0961230992 0.00114793307 0)
(0.0960058964 0.00113119412 0)
(0.0958910489 0.00111149328 0)
(0.0957787537 0.00108864139 0)
(0.0956692282 0.00106246373 0)
(0.0955627106 0.00103279049 0)
(0.0954594623 0.000999450286 0)
(0.0953597704 0.00096227006 0)
(0.0952639499 0.000921079489 0)
(0.0951723447 0.000875716583 0)
(0.0950853281 0.000826032407 0)
(0.095003303 0.000771894315 0)
(0.0949267015 0.00071318818 0)
(0.0948559847 0.000649820188 0)
(0.0947916423 0.000581718736 0)
(0.0947341903 0.000508837238 0)
(0.0946841694 0.000431158891 0)
(0.094642143 0.000348704741 0)
(0.0946086981 0.000261545676 0)
(0.0945844537 0.000169815584 0)
(0.0945700032 7.37466805e-05 0)
(0.0945658921 -2.64275746e-05 0)
(0.0945728057 -0.000130541249 0)
(0.094591565 -0.000238219824 0)
(0.0946229051 -0.000349013615 0)
(0.0946674435 -0.00046241159 0)
(0.0947257295 -0.000577783646 0)
(0.0947982404 -0.000694364037 0)
(0.0948853438 -0.00081125924 0)
(0.0949872693 -0.00092745318 0)
(0.0951040856 -0.00104181701 0)
(0.0952356766 -0.00115312699 0)
(0.095381718 -0.00126008914 0)
(0.0955416589 -0.00136137114 0)
(0.0957147103 -0.001455641 0)
(0.0958998425 -0.00154161071 0)
(0.0960957914 -0.0016180823 0)
(0.0963010771 -0.00168399327 0)
(0.0965140314 -0.00173845822 0)
(0.0967328371 -0.0017808039 0)
(0.096955573 -0.00181059524 0)
(0.097180266 -0.00182765063 0)
(0.0974049442 -0.00183204575 0)
(0.0976276896 -0.0018241059 0)
(0.0978466867 -0.00180438783 0)
(0.0980602649 -0.00177365257 0)
(0.0982669322 -0.00173283142 0)
(0.0984654001 -0.00168298766 0)
(0.0986545981 -0.00162527637 0)
(0.0988336796 -0.00156090467 0)
(0.0990020189 -0.00149109448 0)
(0.099159201 -0.00141704912 0)
(0.0993050066 -0.0013399249 0)
(0.099439392 -0.00126080828 0)
(0.0995624674 -0.00118069851 0)
(0.0996744735 -0.00110049583 0)
(0.0997757587 -0.00102099446 0)
(0.0998667563 -0.000942880108 0)
(0.0999479641 -0.000866730938 0)
(0.100019926 -0.000793021384 0)
(0.100083216 -0.000722128156 0)
(0.100138424 -0.000654337822 0)
(0.10018614 -0.000589855539 0)
(0.100226953 -0.000528814567 0)
(0.100261435 -0.000471285839 0)
(0.10029014 -0.000417286942 0)
(0.100313601 -0.000366790643 0)
(0.100332321 -0.000319733424 0)
(0.100346777 -0.000276024008 0)
(0.100357416 -0.000235550932 0)
(0.100364655 -0.000198187085 0)
(0.100368877 -0.000163795516 0)
(0.10037043 -0.00013223795 0)
(0.100369619 -0.000103371365 0)
(0.100366716 -7.70462447e-05 0)
(0.100362007 -5.31110117e-05 0)
(0.100355811 -3.14087212e-05 0)
(0.100348433 -1.17824677e-05 0)
(0.100340056 5.91846111e-06 0)
(0.100330699 2.18926496e-05 0)
(0.100320451 3.62063527e-05 0)
(0.100309482 4.8955181e-05 0)
(0.100297909 6.02575036e-05 0)
(0.100285834 7.02227725e-05 0)
(0.100273346 7.89566587e-05 0)
(0.100260524 8.65618111e-05 0)
(0.100247442 9.3136182e-05 0)
(0.100234164 9.8772031e-05 0)
(0.100220752 0.000103555282 0)
(0.10020726 0.000107565506 0)
(0.100193737 0.000110876032 0)
(0.100180229 0.000113554077 0)
(0.100166774 0.000115661056 0)
(0.100153407 0.000117253 0)
(0.100140157 0.000118380958 0)