/*--------------------------------*- C++ -*----------------------------------*\
| =========                 |                                                 |
| \\      /  F ield         | OpenFOAM: The Open Source CFD Toolbox           |
|  \\    /   O peration     | Version:  v2012                                 |
|   \\  /    A nd           | Website:  www.openfoam.com                      |
|    \\/     M anipulation  |                                                 |
\*---------------------------------------------------------------------------*/
FoamFile
{
    version     2.0;
    format      ascii;
    class       volVectorField;
    location    "2.69";
    object      HbyA;
}
// * * * * * * * * * * * * * * * * * * * * * * * * * * * * * * * * * * * * * //

dimensions      [0 1 -1 0 0 0 0];


internalField   nonuniform List<vector> 
28416
(
(0.100002274 -1.23966241e-05 0)
(0.100017229 -3.13122457e-05 0)
(0.100042007 -3.88460087e-05 0)
(0.100070414 -3.21672881e-05 0)
(0.100095077 -1.14880326e-05 0)
(0.100111675 2.11723303e-05 0)
(0.100119052 6.14995592e-05 0)
(0.100114974 0.000103680304 0)
(0.100097633 0.000143452298 0)
(0.100068088 0.000177228501 0)
(0.100028807 0.000202064378 0)
(0.0999828343 0.000216108241 0)
(0.0999334251 0.000218811464 0)
(0.0998837509 0.000210789801 0)
(0.099836697 0.000193428832 0)
(0.0997947615 0.000168544045 0)
(0.0997599808 0.000138380846 0)
(0.0997337688 0.000105917108 0)
(0.0997166252 7.50917119e-05 0)
(0.0997078169 5.05327725e-05 0)
(0.099705207 3.66851961e-05 0)
(0.0997053987 3.66699429e-05 0)
(0.0997041859 5.1394449e-05 0)
(0.0996971159 7.92898609e-05 0)
(0.0996802799 0.000116777764 0)
(0.0996513524 0.000159115626 0)
(0.0996098374 0.00020117509 0)
(0.0995566493 0.000238296556 0)
(0.0994938025 0.000266849948 0)
(0.0994239998 0.00028447692 0)
(0.0993502038 0.000290133209 0)
(0.0992753331 0.000284012588 0)
(0.0992020713 0.000267418476 0)
(0.0991327475 0.000242633275 0)
(0.0990692359 0.000212786228 0)
(0.0990127955 0.000181693656 0)
(0.0989638553 0.000153611358 0)
(0.0989217872 0.000132819233 0)
(0.098884729 0.00012306361 0)
(0.0988496317 0.000126959219 0)
(0.0988126984 0.000145453601 0)
(0.0987701449 0.000177464113 0)
(0.0987189719 0.00021985902 0)
(0.098657483 0.000267946333 0)
(0.098585469 0.00031643465 0)
(0.0985040785 0.000360590729 0)
(0.0984154224 0.000397221285 0)
(0.0983220161 0.000425172612 0)
(0.0982262143 0.000445221669 0)
(0.0981297898 0.000459453698 0)
(0.0980337515 0.000470394496 0)
(0.0979384052 0.000480218933 0)
(0.0978435872 0.000490276812 0)
(0.0977489515 0.000501013048 0)
(0.0976542042 0.00051219573 0)
(0.0975592266 0.00052327407 0)
(0.0974640857 0.00053369285 0)
(0.0973689737 0.000543064621 0)
(0.09727413 0.000551193068 0)
(0.0971797837 0.000558004006 0)
(0.09708613 0.000563455654 0)
(0.0969933347 0.000567477495 0)
(0.0969015514 0.000569951947 0)
(0.0968109372 0.000570727024 0)
(0.0967216637 0.00056963947 0)
(0.0966339198 0.000566532681 0)
(0.0965479126 0.000561264651 0)
(0.0964638654 0.000553709192 0)
(0.0963820178 0.000543755013 0)
(0.0963026264 0.000531305312 0)
(0.0962259667 0.000516278765 0)
(0.0961523344 0.000498611642 0)
(0.0960820464 0.000478260388 0)
(0.0960154416 0.000455204124 0)
(0.0959528827 0.000429446745 0)
(0.0958947574 0.000401018263 0)
(0.0958414822 0.000369975019 0)
(0.095793508 0.000336398109 0)
(0.0957513299 0.000300387936 0)
(0.095715518 0.000262051186 0)
(0.0956866915 0.000221462185 0)
(0.0956653683 0.000178636888 0)
(0.0956518703 0.000133579561 0)
(0.0956463808 8.63688176e-05 0)
(0.0956485817 3.72263005e-05 0)
(0.0956582137 -1.27742729e-05 0)
(0.0956773557 -6.26912645e-05 0)
(0.0957078642 -0.000113296874 0)
(0.0957493238 -0.000164812022 0)
(0.0958014819 -0.000216950762 0)
(0.0958644745 -0.000269396051 0)
(0.0959383182 -0.000321802848 0)
(0.0960228953 -0.000373766047 0)
(0.096118019 -0.000424848259 0)
(0.0962234061 -0.000474592966 0)
(0.0963386557 -0.000522525212 0)
(0.096463251 -0.00056815726 0)
(0.0965965651 -0.000610999952 0)
(0.0967378663 -0.000650577409 0)
(0.0968863266 -0.000686443866 0)
(0.0970410325 -0.000718200617 0)
(0.0972009967 -0.000745510769 0)
(0.0973651715 -0.000768110367 0)
(0.0975324647 -0.000785815467 0)
(0.0977017572 -0.000798525411 0)
(0.097871923 -0.000806222992 0)
(0.0980418495 -0.000808972143 0)
(0.0982104573 -0.000806913592 0)
(0.0983767194 -0.000800258696 0)
(0.0985396771 -0.000789281612 0)
(0.0986984544 -0.000774309986 0)
(0.0988522676 -0.00075571453 0)
(0.0990004332 -0.000733897913 0)
(0.0991423716 -0.000709283474 0)
(0.0992776086 -0.000682304273 0)
(0.0994057737 -0.000653392886 0)
(0.0995265964 -0.000622972241 0)
(0.0996399009 -0.000591447785 0)
(0.0997455981 -0.000559200989 0)
(0.0998436778 -0.000526583916 0)
(0.0999342 -0.000493915008 0)
(0.100017287 -0.000461476488 0)
(0.100093115 -0.000429513432 0)
(0.100161905 -0.000398234087 0)
(0.100223914 -0.000367811473 0)
(0.100279425 -0.000338383958 0)
(0.100328734 -0.00031005209 0)
(0.100372161 -0.000282877499 0)
(0.100410049 -0.000256890728 0)
(0.100442765 -0.00023210428 0)
(0.100470679 -0.00020851907 0)
(0.100494155 -0.000186118814 0)
(0.100513551 -0.000164868477 0)
(0.100529229 -0.000144727984 0)
(0.100541549 -0.000125663744 0)
(0.100550857 -0.00010764573 0)
(0.100557484 -9.06431101e-05 0)
(0.100561754 -7.46284816e-05 0)
(0.100563984 -5.95905373e-05 0)
(0.100564476 -4.5545942e-05 0)
(0.100563491 -3.2546004e-05 0)
(0.100561237 -2.06801735e-05 0)
(0.100557822 -1.0071295e-05 0)
(0.100553066 -7.65621997e-07 0)
(0.100546991 7.51806982e-06 0)
(0.10053988 1.48821223e-05 0)
(0.10053182 2.13911222e-05 0)
(0.100522883 2.7131846e-05 0)
(0.100513164 3.21929728e-05 0)
(0.100502773 3.66505287e-05 0)
(0.100491821 4.05678431e-05 0)
(0.100480409 4.40000421e-05 0)
(0.100468624 4.69959152e-05 0)
(0.100456547 4.95982219e-05 0)
(0.100444252 5.18440782e-05 0)
(0.100431807 5.37653829e-05 0)
(0.100419268 5.53893818e-05 0)
(0.100406688 5.67394951e-05 0)
(0.100394112 5.78362938e-05 0)
(0.100381578 5.86984364e-05 0)
(0.100369118 5.93434105e-05 0)
(0.100356759 5.97879922e-05 0)
(0.100344527 6.00484381e-05 0)
(0.10033244 6.01404983e-05 0)
(0.100320518 6.00793412e-05 0)
(0.100308776 5.98794404e-05 0)
(0.100297228 5.95544495e-05 0)
(0.100285887 5.91170782e-05 0)
(0.100274763 5.85789834e-05 0)
(0.100263868 5.79506892e-05 0)
(0.10025321 5.72415478e-05 0)
(0.100242796 5.64597515e-05 0)
(0.100232633 5.56124002e-05 0)
(0.100222728 5.47056168e-05 0)
(0.100213083 5.37447009e-05 0)
(0.100203702 5.27342987e-05 0)
(0.100194589 5.16785672e-05 0)
(0.100185744 5.05813145e-05 0)
(0.100177169 4.94461013e-05 0)
(0.100168865 4.82762932e-05 0)
(0.100160832 4.70750655e-05 0)
(0.100153072 4.58453465e-05 0)
(0.100145586 4.45897605e-05 0)
(0.100138373 4.33102561e-05 0)
(0.100131446 4.20088552e-05 0)
(0.100124776 4.06823514e-05 0)
(0.100118487 3.93440796e-05 0)
(0.100112188 3.79165153e-05 0)
(0.100107385 3.67057403e-05 0)
(0.100099354 3.42476157e-05 0)
(0.100001756 -2.70325744e-05 0)
(0.100015772 -6.88777369e-05 0)
(0.100042169 -8.87782187e-05 0)
(0.100075282 -8.27830964e-05 0)
(0.100107386 -5.13493704e-05 0)
(0.100132166 1.78878802e-06 0)
(0.100144562 6.91617447e-05 0)
(0.100141669 0.000140984203 0)
(0.100123162 0.000209040277 0)
(0.100090311 0.000266781279 0)
(0.100045814 0.000309401511 0)
(0.0999932459 0.000334140376 0)
(0.0999365068 0.000340317389 0)
(0.0998794358 0.000328983873 0)
(0.0998255666 0.00030228143 0)
(0.0997780096 0.000262943695 0)
(0.0997393749 0.000214373508 0)
(0.0997115852 0.000161217616 0)
(0.0996954923 0.000109811071 0)
(0.0996904202 6.77989945e-05 0)
(0.0996939058 4.27539176e-05 0)
(0.0997018629 4.02679104e-05 0)
(0.0997091381 6.22166754e-05 0)
(0.0997102721 0.000106108404 0)
(0.0997004282 0.000165958116 0)
(0.0996763184 0.000233788974 0)
(0.0996366786 0.000301082543 0)
(0.0995822157 0.000360264328 0)
(0.0995152507 0.000405668226 0)
(0.0994391774 0.000433875092 0)
(0.099357893 0.000443610107 0)
(0.0992753386 0.000435414852 0)
(0.0991951848 0.000411299081 0)
(0.0991206229 0.000374510025 0)
(0.0990541951 0.000329429237 0)
(0.0989975851 0.000281503878 0)
(0.0989513465 0.000237047298 0)
(0.0989146577 0.00020272579 0)
(0.0988852289 0.00018467216 0)
(0.0988594327 0.000187348184 0)
(0.0988327004 0.00021245157 0)
(0.0988001899 0.000258246463 0)
(0.0987576487 0.00031962883 0)
(0.0987022536 0.000389051509 0)
(0.0986331482 0.000458145343 0)
(0.098551495 0.000519582516 0)
(0.0984600339 0.000568603354 0)
(0.0983622971 0.000603741028 0)
(0.0982617308 0.000626571468 0)
(0.0981609863 0.000640663716 0)
(0.0980615633 0.000650169712 0)
(0.0979638484 0.000658566659 0)
(0.097867452 0.000667930104 0)
(0.09777166 0.00067885034 0)
(0.0976758232 0.000690841662 0)
(0.0975795736 0.000702948123 0)
(0.097482857 0.000714261196 0)
(0.097385842 0.000724191412 0)
(0.0972887907 0.000732489895 0)
(0.0971919595 0.000739118995 0)
(0.0970955544 0.000744093697 0)
(0.0969997354 0.000747375472 0)
(0.0969046432 0.000748840448 0)
(0.0968104255 0.00074830014 0)
(0.0967172526 0.000745539673 0)
(0.0966253206 0.000740348291 0)
(0.0965348498 0.000732533239 0)
(0.0964460832 0.000721920648 0)
(0.096359285 0.000708352077 0)
(0.0962747411 0.000691682694 0)
(0.0961927599 0.000671782415 0)
(0.0961136742 0.000648538875 0)
(0.0960378419 0.000621860662 0)
(0.0959656458 0.000591679765 0)
(0.0958974944 0.000557952924 0)
(0.0958338221 0.00052066189 0)
(0.0957750895 0.000479812709 0)
(0.0957217839 0.000435433594 0)
(0.0956744182 0.000387569459 0)
(0.0956335247 0.000336270038 0)
(0.0955996151 0.000281553859 0)
(0.0955731262 0.000223410639 0)
(0.0955544514 0.000161895225 0)
(0.0955440406 9.72161741e-05 0)
(0.0955428009 2.97393174e-05 0)
(0.0955514678 -3.99272939e-05 0)
(0.095570077 -0.000110776798 0)
(0.0955991035 -0.000182946271 0)
(0.0956392505 -0.00025638032 0)
(0.0956907896 -0.000330658864 0)
(0.0957538662 -0.000405312624 0)
(0.0958285737 -0.000479833361 0)
(0.0959148925 -0.000553633117 0)
(0.096012688 -0.000626065518 0)
(0.0961217068 -0.000696446865 0)
(0.0962415637 -0.000764068543 0)
(0.096371738 -0.000828213432 0)
(0.096511575 -0.000888175381 0)
(0.0966602899 -0.000943278895 0)
(0.0968169754 -0.000992898805 0)
(0.0969806132 -0.00103647939 0)
(0.0971500885 -0.00107355175 0)
(0.0973242081 -0.00110374854 0)
(0.0975017216 -0.00112681533 0)
(0.0976813452 -0.00114261795 0)
(0.0978617876 -0.00115114538 0)
(0.0980417757 -0.00115250815 0)
(0.0982200801 -0.00114693241 0)
(0.0983955377 -0.00113475013 0)
(0.0985670722 -0.00111638618 0)
(0.0987337099 -0.00109234304 0)
(0.0988945919 -0.00106318399 0)
(0.0990489816 -0.00102951575 0)
(0.099196269 -0.000991971198 0)
(0.0993359703 -0.000951192959 0)
(0.0994677246 -0.000907818366 0)
(0.0995912881 -0.000862466201 0)
(0.0997065259 -0.000815725542 0)
(0.0998134021 -0.000768146749 0)
(0.0999119694 -0.00072023443 0)
(0.100002358 -0.000672442538 0)
(0.100084763 -0.000625171643 0)
(0.100159435 -0.0005787679 0)
(0.100226669 -0.000533523243 0)
(0.100286793 -0.000489676947 0)
(0.100340164 -0.000447417492 0)
(0.100387161 -0.000406883246 0)
(0.100428176 -0.000368164792 0)
(0.100463604 -0.00033131248 0)
(0.100493843 -0.000296346012 0)
(0.100519293 -0.000263262454 0)
(0.100540358 -0.00023204405 0)
(0.100557421 -0.000202660069 0)
(0.100570841 -0.000175065064 0)
(0.100580965 -0.000149204724 0)
(0.100588135 -0.000125031176 0)
(0.10059268 -0.00010250624 0)
(0.100594903 -8.15912217e-05 0)
(0.10059507 -6.22487446e-05 0)
(0.100593412 -4.44534219e-05 0)
(0.100590108 -2.81803682e-05 0)
(0.100585283 -1.33769714e-05 0)
(0.100579092 5.28944608e-08 0)
(0.100571815 1.20671962e-05 0)
(0.100563647 2.28156691e-05 0)
(0.100554622 3.23728097e-05 0)
(0.100544812 4.08142096e-05 0)
(0.100534316 4.82328563e-05 0)
(0.100523218 5.473073e-05 0)
(0.1005116 6.04029337e-05 0)
(0.10049955 6.53308183e-05 0)
(0.100487151 6.9586008e-05 0)
(0.100474478 7.32331894e-05 0)
(0.100461599 7.6330486e-05 0)
(0.100448576 7.89299636e-05 0)
(0.100435467 8.10782628e-05 0)
(0.10042232 8.28171544e-05 0)
(0.100409181 8.41841019e-05 0)
(0.100396089 8.52128208e-05 0)
(0.100383078 8.59338024e-05 0)
(0.100370178 8.63747974e-05 0)
(0.100357416 8.65612249e-05 0)
(0.100344812 8.65164871e-05 0)
(0.100332387 8.62622039e-05 0)
(0.100320158 8.58183869e-05 0)
(0.100308137 8.52035632e-05 0)
(0.100296338 8.4434854e-05 0)
(0.100284771 8.35280235e-05 0)
(0.100273445 8.24975123e-05 0)
(0.100262368 8.13564684e-05 0)
(0.100251547 8.01167832e-05 0)
(0.100240986 7.87891418e-05 0)
(0.100230691 7.73830904e-05 0)
(0.100220665 7.59071167e-05 0)
(0.100210912 7.43687445e-05 0)
(0.100201433 7.27746317e-05 0)
(0.10019223 7.1130665e-05 0)
(0.100183304 6.94420438e-05 0)
(0.100174655 6.77133451e-05 0)
(0.100166284 6.59485592e-05 0)
(0.100158191 6.41510945e-05 0)
(0.100150375 6.23237233e-05 0)
(0.100142838 6.04685538e-05 0)
(0.100135577 5.85865185e-05 0)
(0.100128604 5.66786813e-05 0)
(0.100121881 5.47382325e-05 0)
(0.100115537 5.27845048e-05 0)
(0.100109134 5.07039447e-05 0)
(0.100104247 4.8953756e-05 0)
(0.100095747 4.54790007e-05 0)
(0.100002009 -3.43682445e-05 0)
(0.100016475 -8.85393991e-05 0)
(0.100042345 -0.000116490076 0)
(0.100074128 -0.000114206225 0)
(0.100104669 -8.23383322e-05 0)
(0.100128224 -2.56327563e-05 0)
(0.10014019 4.73746203e-05 0)
(0.100137531 0.000127239923 0)
(0.100119678 0.000204236866 0)
(0.100087864 0.000270179237 0)
(0.100044651 0.000319351085 0)
(0.0999934294 0.000348548252 0)
(0.0999379287 0.000356933593 0)
(0.0998818607 0.000345603875 0)
(0.0998286804 0.000316866576 0)
(0.0997814467 0.000273681198 0)
(0.0997427312 0.000219755842 0)
(0.099714438 0.000160223892 0)
(0.0996974615 0.000102182166 0)
(0.0996912765 5.42897607e-05 0)
(0.0996936624 2.51873511e-05 0)
(0.099700627 2.12488462e-05 0)
(0.0997068502 4.48969769e-05 0)
(0.0997068954 9.40271734e-05 0)
(0.0996963048 0.000162272096 0)
(0.099672124 0.000240559592 0)
(0.0996331789 0.000319061741 0)
(0.0995800746 0.000388920182 0)
(0.0995149071 0.000443385863 0)
(0.0994408007 0.000478290527 0)
(0.0993614096 0.000491983081 0)
(0.0992804944 0.000484958956 0)
(0.0992016056 0.000459426738 0)
(0.0991278565 0.000418997063 0)
(0.0990617368 0.000368550378 0)
(0.0990049141 0.000314185527 0)
(0.0989580037 0.000263044013 0)
(0.0989203395 0.000222782913 0)
(0.0988898138 0.000200584841 0)
(0.0988629362 0.000201846401 0)
(0.0988352642 0.000228869269 0)
(0.0988021488 0.000279981696 0)
(0.0987595608 0.000349506696 0)
(0.0987047948 0.000428753939 0)
(0.0986369163 0.00050786345 0)
(0.0985568351 0.000578012298 0)
(0.0984669583 0.000633315778 0)
(0.0983705148 0.000671823924 0)
(0.0982707581 0.000695333873 0)
(0.0981702877 0.000708174449 0)
(0.0980706732 0.00071548055 0)
(0.0979724419 0.000721604507 0)
(0.0978753562 0.000729165937 0)
(0.0977788186 0.000738911925 0)
(0.0976822396 0.000750216908 0)
(0.0975852576 0.000761851323 0)
(0.0974877908 0.000772650637 0)
(0.0973899685 0.000781872919 0)
(0.0972920185 0.000789231583 0)
(0.0971941743 0.000794727761 0)
(0.0970966296 0.000798440455 0)
(0.0969995379 0.000800383308 0)
(0.0969030349 0.000800458996 0)
(0.0968072637 0.000798484039 0)
(0.096712391 0.00079423791 0)
(0.0966186136 0.000787502534 0)
(0.0965261564 0.000778079894 0)
(0.096435269 0.000765792336 0)
(0.096346224 0.000750476778 0)
(0.0962593175 0.000731980864 0)
(0.0961748707 0.000710163244 0)
(0.0960932303 0.000684896653 0)
(0.0960147689 0.000656071742 0)
(0.0959398852 0.000623600345 0)
(0.0958690034 0.000587417725 0)
(0.0958025737 0.000547483826 0)
(0.0957410719 0.000503783623 0)
(0.0956849992 0.000456326338 0)
(0.0956348804 0.000405143274 0)
(0.095591258 0.000350285041 0)
(0.0955546848 0.000291820079 0)
(0.0955257246 0.000229861456 0)
(0.0955049526 0.000164605552 0)
(0.095492892 9.63087996e-05 0)
(0.0954896137 2.52536755e-05 0)
(0.0954954883 -4.83678072e-05 0)
(0.0955116995 -0.000124309102 0)
(0.0955390427 -0.00020213589 0)
(0.0955778036 -0.00028152433 0)
(0.0956282627 -0.000362073196 0)
(0.0956906949 -0.000443265072 0)
(0.09576527 -0.000524508163 0)
(0.0958520318 -0.000605139611 0)
(0.0959509032 -0.000684432592 0)
(0.0960616748 -0.000761611756 0)
(0.0961839915 -0.00083586749 0)
(0.0963173451 -0.000906372765 0)
(0.0964610728 -0.00097230451 0)
(0.0966143587 -0.0010328679 0)
(0.0967762407 -0.00108732212 0)
(0.0969456223 -0.00113500603 0)
(0.0971212908 -0.0011753615 0)
(0.0973019389 -0.00120795292 0)
(0.0974861914 -0.00123248157 0)
(0.0976726344 -0.00124879422 0)
(0.0978598468 -0.00125688586 0)
(0.0980464303 -0.00125689683 0)
(0.0982310399 -0.00124910466 0)
(0.0984124101 -0.00123391141 0)
(0.0985893779 -0.00121182724 0)
(0.0987609008 -0.00118345131 0)
(0.0989260701 -0.00114945081 0)
(0.0990841187 -0.00111053954 0)
(0.099234424 -0.00106745683 0)
(0.0993765069 -0.0010209477 0)
(0.0995100259 -0.000971745112 0)
(0.0996347691 -0.000920554594 0)
(0.0997506433 -0.000868041624 0)
(0.0998576613 -0.000814821851 0)
(0.099955929 -0.000761453994 0)
(0.100045632 -0.000708435372 0)
(0.100127021 -0.000656199783 0)
(0.100200403 -0.00060511731 0)
(0.100266126 -0.000555495758 0)
(0.100324571 -0.000507583228 0)
(0.100376139 -0.000461572148 0)
(0.100421245 -0.000417605101 0)
(0.100460308 -0.00037578065 0)
(0.100493757 -0.000336158115 0)
(0.100522019 -0.000298761867 0)
(0.10054551 -0.000263587699 0)
(0.100564625 -0.000230613252 0)
(0.100579757 -0.000199802374 0)
(0.100591292 -0.000171100159 0)
(0.100599594 -0.000144435629 0)
(0.10060499 -0.000119723538 0)
(0.1006078 -9.68695974e-05 0)
(0.100608348 -7.57846994e-05 0)
(0.100606936 -5.63730111e-05 0)
(0.100603849 -3.85463747e-05 0)
(0.100599381 -2.22616434e-05 0)
(0.100593824 -7.51801427e-06 0)
(0.100587179 5.75094853e-06 0)
(0.100579324 1.77383493e-05 0)
(0.100570411 2.84860827e-05 0)
(0.100560635 3.80492105e-05 0)
(0.100550106 4.65200085e-05 0)
(0.100538926 5.3982194e-05 0)
(0.100527191 6.0518845e-05 0)
(0.100514988 6.62149964e-05 0)
(0.100502402 7.11495897e-05 0)
(0.100489511 7.53940843e-05 0)
(0.10047639 7.90138277e-05 0)
(0.100463105 8.20681785e-05 0)
(0.100449715 8.46105091e-05 0)
(0.100436277 8.66886212e-05 0)
(0.100422838 8.83453398e-05 0)
(0.10040944 8.96191735e-05 0)
(0.100396119 9.05449623e-05 0)
(0.100382907 9.11544536e-05 0)
(0.100369831 9.14767891e-05 0)
(0.100356913 9.15388798e-05 0)
(0.100344172 9.13656572e-05 0)
(0.100331625 9.09802263e-05 0)
(0.100319287 9.0403961e-05 0)
(0.10030717 8.96565655e-05 0)
(0.100295286 8.87561176e-05 0)
(0.100283643 8.77191066e-05 0)
(0.100272249 8.65604735e-05 0)
(0.100261113 8.52936635e-05 0)
(0.10025024 8.39306926e-05 0)
(0.100239634 8.24822322e-05 0)
(0.100229301 8.09577137e-05 0)
(0.100219243 7.93654454e-05 0)
(0.100209462 7.771274e-05 0)
(0.10019996 7.60060416e-05 0)
(0.100190738 7.42510401e-05 0)
(0.100181796 7.24527674e-05 0)
(0.100173133 7.06156638e-05 0)
(0.10016475 6.87436105e-05 0)
(0.100156646 6.68399276e-05 0)
(0.100148819 6.49073151e-05 0)
(0.100141271 6.29478521e-05 0)
(0.100133997 6.09624782e-05 0)
(0.100127007 5.89526612e-05 0)
(0.100120266 5.69117268e-05 0)
(0.100113897 5.48631105e-05 0)
(0.100107482 5.26890159e-05 0)
(0.100102576 5.08816105e-05 0)
(0.100094262 4.73163902e-05 0)
(0.100001937 -4.4110235e-05 0)
(0.100016755 -0.000114664023 0)
(0.100044238 -0.000152176291 0)
(0.100078908 -0.000150830382 0)
(0.100112793 -0.000111194997 0)
(0.100138668 -3.91359747e-05 0)
(0.100151999 5.50438863e-05 0)
(0.100150332 0.000158282248 0)
(0.100132346 0.000257729322 0)
(0.100099025 0.000343001628 0)
(0.100053179 0.000406811469 0)
(0.0999985125 0.000445047834 0)
(0.099939133 0.000456599525 0)
(0.0998791806 0.000442795786 0)
(0.0998225458 0.00040650433 0)
(0.0997726951 0.000351433744 0)
(0.0997325387 0.000282254761 0)
(0.0997042013 0.000205464162 0)
(0.099688619 0.000130092767 0)
(0.0996850566 6.72265595e-05 0)
(0.0996907737 2.80420985e-05 0)
(0.0997014134 2.11774642e-05 0)
(0.0997118628 5.0168775e-05 0)
(0.0997165091 0.000111969051 0)
(0.0997100137 0.000198320643 0)
(0.0996886604 0.000297623772 0)
(0.0996508862 0.000397310818 0)
(0.0995972396 0.000486075249 0)
(0.0995300221 0.000555348 0)
(0.0994527498 0.000599881168 0)
(0.0993695776 0.0006176175 0)
(0.0992848072 0.000609169069 0)
(0.0992025229 0.000577242215 0)
(0.099126325 0.000526252566 0)
(0.0990591005 0.000462199161 0)
(0.0990027692 0.000392660651 0)
(0.0989579894 0.000326627824 0)
(0.0989238982 0.000273880602 0)
(0.0988980412 0.000243729448 0)
(0.0988765561 0.000243256526 0)
(0.0988545811 0.000275544618 0)
(0.0988269239 0.000338518835 0)
(0.098788951 0.000424918765 0)
(0.0987374672 0.000523616398 0)
(0.0986713031 0.000622031663 0)
(0.0985914255 0.000708962335 0)
(0.0985005323 0.000776973076 0)
(0.0984022656 0.000823625944 0)
(0.0983002977 0.000851226008 0)
(0.098197563 0.000865282167 0)
(0.0980958366 0.000872329635 0)
(0.0979957178 0.000877922823 0)
(0.0978969375 0.000885428071 0)
(0.0977988088 0.000895836332 0)
(0.0977006383 0.000908386478 0)
(0.0976019755 0.000921534869 0)
(0.0975026771 0.000933805911 0)
(0.0974028355 0.000944252706 0)
(0.0973026578 0.000952506673 0)
(0.0972023635 0.000958570433 0)
(0.0971021341 0.0009625531 0)
(0.0970021109 0.000964486828 0)
(0.0969024189 0.000964265809 0)
(0.0968031933 0.000961674942 0)
(0.0967045968 0.000956450292 0)
(0.0966068252 0.00094832741 0)
(0.0965101058 0.000937062673 0)
(0.0964146948 0.000922434465 0)
(0.0963208765 0.000904236932 0)
(0.0962289634 0.000882275515 0)
(0.0961392969 0.000856367319 0)
(0.0960522484 0.000826344892 0)
(0.0959682197 0.000792060661 0)
(0.0958876422 0.000753390257 0)
(0.0958109768 0.000710234276 0)
(0.0957387117 0.00066251877 0)
(0.0956713613 0.000610195033 0)
(0.0956094635 0.000553239094 0)
(0.0955535761 0.00049165124 0)
(0.0955042716 0.000425456311 0)
(0.0954621309 0.0003547063 0)
(0.0954277336 0.000279485129 0)
(0.0954016362 0.000199908194 0)
(0.0953843981 0.000116131514 0)
(0.0953768922 2.84077274e-05 0)
(0.0953798579 -6.26653327e-05 0)
(0.095393626 -0.000156590996 0)
(0.0954187479 -0.000253045034 0)
(0.0954558613 -0.000351574742 0)
(0.0955054336 -0.000451598639 0)
(0.095567813 -0.000552451909 0)
(0.0956432542 -0.000653385559 0)
(0.0957318932 -0.000753559064 0)
(0.0958337265 -0.000852049541 0)
(0.0959485956 -0.000947869949 0)
(0.0960761717 -0.00103998974 0)
(0.0962159445 -0.00112735931 0)
(0.0963672166 -0.00120893833 0)
(0.0965291042 -0.00128372613 0)
(0.0967005446 -0.00135079281 0)
(0.0968803104 -0.00140931005 0)
(0.0970670315 -0.00145857959 0)
(0.0972592215 -0.00149805795 0)
(0.0974553115 -0.00152737563 0)
(0.0976536856 -0.00154634949 0)
(0.09785272 -0.0015549874 0)
(0.098050821 -0.00155348504 0)
(0.0982464618 -0.00154221517 0)
(0.0984382153 -0.00152171036 0)
(0.0986247811 -0.0014926406 0)
(0.0988050074 -0.00145578714 0)
(0.0989779052 -0.00141201454 0)
(0.0991426563 -0.00136224211 0)
(0.0992986152 -0.00130741639 0)
(0.0994453056 -0.00124848565 0)
(0.0995824114 -0.00118637733 0)
(0.0997097656 -0.00112197887 0)
(0.0998273351 -0.00105612233 0)
(0.0999352053 -0.000989572711 0)
(0.100033563 -0.000923019845 0)
(0.10012268 -0.000857073485 0)
(0.100202897 -0.000792261478 0)
(0.100274606 -0.000729030521 0)
(0.100338241 -0.000667748973 0)
(0.100394262 -0.000608711157 0)
(0.100443145 -0.000552142539 0)
(0.100485376 -0.000498205107 0)
(0.100521442 -0.000447003479 0)
(0.100551823 -0.00039859274 0)
(0.100576989 -0.000352987955 0)
(0.100597395 -0.000310171184 0)
(0.100613479 -0.000270092484 0)
(0.100625664 -0.000232675132 0)
(0.100634347 -0.000197828475 0)
(0.100639911 -0.00016545594 0)
(0.100642725 -0.000135450206 0)
(0.100643123 -0.000107698307 0)
(0.100641408 -8.21014618e-05 0)
(0.100637847 -5.85970198e-05 0)
(0.100632609 -3.71271177e-05 0)
(0.100625772 -1.75964827e-05 0)
(0.100617486 1.00754882e-07 0)
(0.100608127 1.59381957e-05 0)
(0.100597952 3.00483363e-05 0)
(0.100586997 4.26163879e-05 0)
(0.100575354 5.37596703e-05 0)
(0.100563127 6.35913307e-05 0)
(0.100550408 7.22221513e-05 0)
(0.100537279 7.975489e-05 0)
(0.10052382 8.62879825e-05 0)
(0.100510101 9.19135398e-05 0)
(0.10049619 9.67156777e-05 0)
(0.100482149 0.000100771387 0)
(0.100468031 0.000104151288 0)
(0.100453887 0.000106919896 0)
(0.100439759 0.000109135889 0)
(0.100425687 0.000110852438 0)
(0.100411708 0.000112117624 0)
(0.100397852 0.000112974889 0)
(0.100384148 0.000113463514 0)
(0.100370619 0.000113619081 0)
(0.100357287 0.000113473922 0)
(0.100344169 0.000113057514 0)
(0.100331281 0.000112396803 0)
(0.100318636 0.000111516471 0)
(0.100306243 0.00011043914 0)
(0.100294111 0.000109185531 0)
(0.100282247 0.000107774593 0)
(0.100270657 0.000106223604 0)
(0.100259345 0.000104548268 0)
(0.100248315 0.000102762799 0)
(0.100237568 0.000100880006 0)
(0.100227108 9.8911384e-05 0)
(0.100216935 9.68671925e-05 0)
(0.10020705 9.47565478e-05 0)
(0.100197454 9.25875033e-05 0)
(0.100188145 9.03671265e-05 0)
(0.100179125 8.81015697e-05 0)
(0.100170391 8.57961322e-05 0)
(0.100161943 8.34553056e-05 0)
(0.10015378 8.10828073e-05 0)
(0.1001459 7.86815646e-05 0)
(0.100138303 7.6253796e-05 0)
(0.100130983 7.38004739e-05 0)
(0.100123949 7.13235041e-05 0)
(0.100117163 6.8815194e-05 0)
(0.100110749 6.63052547e-05 0)
(0.100104263 6.36505547e-05 0)
(0.100099301 6.14535622e-05 0)
(0.100090663 5.71174797e-05 0)
(0.100001979 -5.36174497e-05 0)
(0.10001684 -0.000140370745 0)
(0.100044175 -0.000188689985 0)
(0.100078581 -0.000191790994 0)
(0.100112461 -0.000149916897 0)
(0.100139444 -6.93205929e-05 0)
(0.100154122 3.82679162e-05 0)
(0.100152769 0.000157300669 0)
(0.100134763 0.000272545359 0)
(0.100101491 0.000371731189 0)
(0.100055625 0.000446368158 0)
(0.100000801 0.000491694471 0)
(0.0999410954 0.00050634071 0)
(0.0998806355 0.000491680481 0)
(0.099823322 0.000450841324 0)
(0.0997726543 0.00038794399 0)
(0.0997315928 0.000308263152 0)
(0.0997023365 0.000219233601 0)
(0.0996859393 0.000131287479 0)
(0.0996818731 5.73417376e-05 0)
(0.099687926 1.05545975e-05 0)
(0.0996999493 8.4497396e-07 0)
(0.0997116182 3.23796063e-05 0)
(0.0997166716 0.000102421116 0)
(0.0997104749 0.000201692318 0)
(0.0996896886 0.000316723521 0)
(0.0996527593 0.00043285562 0)
(0.0996001225 0.000536826947 0)
(0.0995339332 0.000618512328 0)
(0.0994575732 0.000671646704 0)
(0.0993751079 0.000693699681 0)
(0.0992908011 0.000685267521 0)
(0.0992087388 0.000649385057 0)
(0.0991325472 0.000591060291 0)
(0.0990651583 0.000517124826 0)
(0.0990085681 0.000436250358 0)
(0.0989635902 0.000358782668 0)
(0.0989296001 0.000296007696 0)
(0.0989043089 0.000258730141 0)
(0.0988838033 0.000255311592 0)
(0.0988630367 0.000289597055 0)
(0.098836661 0.000359509893 0)
(0.0987999632 0.000456929633 0)
(0.0987497028 0.000569084273 0)
(0.0986846511 0.000681273498 0)
(0.0986056809 0.000780207903 0)
(0.0985153916 0.000856924167 0)
(0.098417372 0.000908357279 0)
(0.0983153072 0.00093713253 0)
(0.098212195 0.000949783847 0)
(0.0981098925 0.000954157397 0)
(0.0980090705 0.000956978076 0)
(0.097909503 0.000962357906 0)
(0.0978105152 0.000971535465 0)
(0.0977114023 0.00098360987 0)
(0.0976116911 0.000996712497 0)
(0.0975112133 0.00100904785 0)
(0.0974100397 0.00101946537 0)
(0.0973083596 0.0010275284 0)
(0.0972063777 0.00103326412 0)
(0.0971042612 0.00103683796 0)
(0.097002138 0.00103832477 0)
(0.0969001202 0.00103762993 0)
(0.0967983321 0.0010345219 0)
(0.0966969288 0.00102870554 0)
(0.0965961027 0.00101988221 0)
(0.096496083 0.00100777711 0)
(0.0963971332 0.000992140813 0)
(0.0962995495 0.000972740692 0)
(0.0962036604 0.000949354373 0)
(0.0961098273 0.000921769385 0)
(0.0960184438 0.000889787232 0)
(0.0959299353 0.00085322859 0)
(0.0958447571 0.000811937509 0)
(0.0957633926 0.000765784074 0)
(0.0956863522 0.000714665855 0)
(0.0956141717 0.000658508798 0)
(0.0955474117 0.000597267966 0)
(0.0954866558 0.00053092848 0)
(0.0954325083 0.00045950737 0)
(0.0953855929 0.000383057772 0)
(0.0953465495 0.000301675627 0)
(0.0953160379 0.000215511698 0)
(0.0952947314 0.000124794955 0)
(0.0952831802 2.98264488e-05 0)
(0.0952819991 -6.92393739e-05 0)
(0.0952920328 -0.000172049854 0)
(0.0953140346 -0.000278107062 0)
(0.0953486107 -0.000386891649 0)
(0.0953963095 -0.000497788724 0)
(0.0954576129 -0.000610054932 0)
(0.0955328973 -0.000722828083 0)
(0.0956224065 -0.000835134535 0)
(0.0957262312 -0.000945897535 0)
(0.0958442884 -0.00105395288 0)
(0.0959762993 -0.00115807113 0)
(0.0961217729 -0.00125698619 0)
(0.0962799952 -0.00134943048 0)
(0.0964500258 -0.00143417455 0)
(0.0966307042 -0.00151006934 0)
(0.0968206646 -0.00157608806 0)
(0.0970183618 -0.00163136492 0)
(0.0972221046 -0.00167522801 0)
(0.097430098 -0.00170722432 0)
(0.0976404891 -0.00172713514 0)
(0.0978514168 -0.00173498122 0)
(0.0980610594 -0.00173101749 0)
(0.0982676812 -0.00171571817 0)
(0.0984696718 -0.00168975345 0)
(0.0986655794 -0.0016539596 0)
(0.0988541356 -0.00160930464 0)
(0.0990342711 -0.0015568518 0)
(0.0992051233 -0.00149772291 0)
(0.099366036 -0.0014330634 0)
(0.0995165516 -0.00136401066 0)
(0.0996563992 -0.00129166653 0)
(0.0997854774 -0.00121707459 0)
(0.099903835 -0.00114120263 0)
(0.10001165 -0.00106493002 0)
(0.100109208 -0.000989039685 0)
(0.100196883 -0.000914214324 0)
(0.100275115 -0.000841036074 0)
(0.100344397 -0.000769989019 0)
(0.100405252 -0.000701463844 0)
(0.100458229 -0.000635764146 0)
(0.100503882 -0.000573114031 0)
(0.100542764 -0.000513666705 0)
(0.100575421 -0.000457513512 0)
(0.100602384 -0.000404692562 0)
(0.100624166 -0.000355196673 0)
(0.100641256 -0.000308981251 0)
(0.100654119 -0.000265972504 0)
(0.100663193 -0.000226075259 0)
(0.100668889 -0.000189179189 0)
(0.100671589 -0.000155161605 0)
(0.100671639 -0.000123896912 0)
(0.10066935 -9.52600616e-05 0)
(0.100664986 -6.91157478e-05 0)
(0.100658803 -4.53243821e-05 0)
(0.100651122 -2.37417917e-05 0)
(0.100642296 -4.20969606e-06 0)
(0.100632476 1.34269631e-05 0)
(0.100621694 2.93441659e-05 0)
(0.100610069 4.35884288e-05 0)
(0.100597736 5.62605839e-05 0)
(0.100584807 6.74765039e-05 0)
(0.100571383 7.7346006e-05 0)
(0.100557554 8.59771173e-05 0)
(0.100543402 9.34731105e-05 0)
(0.100529001 9.99325378e-05 0)
(0.10051442 0.000105448655 0)
(0.100499721 0.000110108077 0)
(0.100484961 0.000113990622 0)
(0.100470193 0.000117169644 0)
(0.100455462 0.000119712337 0)
(0.100440812 0.000121680107 0)
(0.100426277 0.000123129024 0)
(0.100411889 0.000124110249 0)
(0.100397673 0.000124670429 0)
(0.100383652 0.000124852062 0)
(0.100369845 0.000124693843 0)