/*--------------------------------*- C++ -*----------------------------------*\
| =========                 |                                                 |
| \\      /  F ield         | OpenFOAM: The Open Source CFD Toolbox           |
|  \\    /   O peration     | Version:  v2012                                 |
|   \\  /    A nd           | Website:  www.openfoam.com                      |
|    \\/     M anipulation  |                                                 |
\*---------------------------------------------------------------------------*/
FoamFile
{
    version     2.0;
    format      ascii;
    class       volScalarField;
    location    "2.69";
    object      rAU;
}
// * * * * * * * * * * * * * * * * * * * * * * * * * * * * * * * * * * * * * //

dimensions      [0 0 1 0 0 0 0];


internalField   nonuniform List<scalar> 
28416
(
0.000631441866
0.000631451263
0.000631449005
0.000631447573
0.000631447365
0.000631445037
0.000631439242
0.000631433998
0.000631429959
0.000631427545
0.000631426969
0.000631428263
0.000631431266
0.000631435679
0.000631441125
0.000631447207
0.000631453498
0.000631459523
0.000631464749
0.00063146862
0.000631470692
0.000631470781
0.000631469054
0.000631466055
0.000631462516
0.000631459147
0.000631456657
0.000631455591
0.000631456283
0.000631458845
0.000631463204
0.000631469131
0.000631476275
0.000631484186
0.000631492346
0.000631500189
0.000631507156
0.000631512751
0.00063151663
0.000631518668
0.000631518996
0.000631517997
0.000631516268
0.000631514516
0.000631513429
0.000631513535
0.000631515096
0.00063151809
0.000631522256
0.000631527205
0.000631532542
0.000631537968
0.000631543317
0.000631548555
0.000631553734
0.000631558931
0.000631564215
0.000631569622
0.000631575161
0.000631580825
0.000631586605
0.000631592497
0.000631598505
0.000631604637
0.000631610902
0.000631617305
0.000631623853
0.000631630545
0.000631637377
0.000631644349
0.000631651449
0.000631658664
0.000631665983
0.000631673381
0.000631680835
0.000631688318
0.000631695791
0.000631703213
0.00063171054
0.000631717709
0.000631724682
0.000631731454
0.000631737996
0.000631744289
0.000631750333
0.000631752856
0.000631748214
0.000631742759
0.000631736495
0.000631729444
0.000631721626
0.000631713068
0.000631703802
0.000631693869
0.000631683325
0.000631672225
0.000631660637
0.000631648641
0.000631636315
0.000631623746
0.000631611026
0.000631598241
0.000631585482
0.000631572835
0.000631560386
0.000631548209
0.00063153638
0.000631524961
0.000631514007
0.000631503566
0.000631493678
0.000631484368
0.000631475657
0.00063146756
0.000631460075
0.000631453201
0.00063144693
0.000631441245
0.000631436126
0.000631431555
0.000631427502
0.000631423942
0.000631420846
0.000631418188
0.000631415936
0.000631414062
0.000631412542
0.000631411347
0.000631410449
0.000631409828
0.000631409454
0.000631409304
0.000631409357
0.000631409588
0.000631409974
0.000631410497
0.000631411134
0.000631411863
0.000631412668
0.000631413523
0.000631414409
0.000631415311
0.000631416221
0.000631416794
0.000631416232
0.000631415802
0.000631415551
0.000631415458
0.000631415506
0.000631415674
0.000631415946
0.000631416313
0.000631416758
0.000631417272
0.000631417847
0.000631418472
0.000631419139
0.000631419846
0.000631420583
0.000631421345
0.000631422129
0.000631422932
0.000631423747
0.000631424575
0.00063142541
0.000631426249
0.000631427089
0.000631427931
0.000631428769
0.000631429601
0.000631430429
0.000631431248
0.000631432057
0.000631432858
0.000631433646
0.00063143442
0.000631435184
0.000631435934
0.000631436669
0.000631437389
0.000631438096
0.000631438787
0.00063143946
0.00063144012
0.000631440762
0.000631441387
0.000631441995
0.000631442592
0.000631443138
0.000631455708
0.000631432364
0.000631440904
0.000631438008
0.000631436196
0.000631435867
0.000631436541
0.000631432726
0.000631428983
0.000631426463
0.000631425471
0.000631426101
0.000631428279
0.000631431778
0.00063143628
0.000631441424
0.000631446847
0.000631452177
0.000631457029
0.000631460999
0.000631463707
0.000631464902
0.000631464554
0.000631462901
0.000631460431
0.000631457793
0.000631455647
0.000631454558
0.000631454908
0.000631456873
0.000631460424
0.000631465379
0.000631471446
0.000631478261
0.000631485423
0.00063149251
0.000631499101
0.000631504802
0.000631509292
0.000631512382
0.000631514061
0.000631514533
0.000631514215
0.000631513671
0.000631513515
0.000631514283
0.000631516322
0.00063151973
0.000631524368
0.000631529923
0.000631536015
0.000631542302
0.000631548551
0.000631554662
0.000631560642
0.00063156656
0.000631572496
0.000631578507
0.00063158462
0.000631590831
0.000631597126
0.000631603489
0.000631609911
0.000631616388
0.000631622922
0.000631629511
0.000631636153
0.000631642846
0.000631649581
0.000631656349
0.000631663139
0.000631669936
0.000631676723
0.000631683482
0.000631690189
0.000631696817
0.000631703341
0.000631709724
0.000631715932
0.000631721927
0.000631727668
0.000631733118
0.000631738248
0.000631743018
0.000631747382
0.00063175126
0.000631750258
0.000631744948
0.000631738838
0.000631731892
0.000631724115
0.000631715517
0.000631706126
0.000631695974
0.000631685106
0.000631673584
0.000631661471
0.000631648844
0.000631635792
0.000631622406
0.000631608784
0.000631595033
0.000631581252
0.000631567547
0.000631554017
0.000631540761
0.000631527863
0.000631515409
0.000631503467
0.000631492098
0.00063148135
0.000631471265
0.000631461866
0.000631453167
0.000631445178
0.000631437892
0.000631431298
0.000631425379
0.000631420109
0.000631415458
0.000631411398
0.00063140789
0.0006314049
0.00063140239
0.000631400326
0.00063139867
0.000631397387
0.000631396445
0.00063139581
0.000631395452
0.000631395344
0.000631395456
0.000631395762
0.000631396241
0.000631396868
0.000631397622
0.000631398487
0.000631399439
0.00063140046
0.00063140154
0.00063140266
0.000631403811
0.00063140498
0.000631405986
0.000631406102
0.000631406061
0.000631406144
0.000631406342
0.000631406643
0.000631407041
0.000631407518
0.000631408066
0.000631408679
0.000631409342
0.00063141005
0.000631410798
0.000631411576
0.000631412378
0.000631413204
0.000631414044
0.000631414895
0.000631415754
0.000631416621
0.000631417487
0.000631418356
0.00063141922
0.00063142008
0.000631420932
0.000631421779
0.000631422615
0.000631423438
0.000631424253
0.000631425053
0.000631425837
0.00063142661
0.000631427367
0.000631428106
0.000631428832
0.00063142954
0.000631430232
0.000631430905
0.000631431564
0.000631432203
0.000631432825
0.000631433431
0.000631434018
0.000631434586
0.000631435138
0.000631435678
0.000631436181
0.00063144866
0.000631431786
0.000631439381
0.000631435976
0.000631434113
0.000631434158
0.000631436182
0.000631433326
0.000631428526
0.000631424945
0.000631423004
0.000631422879
0.000631424547
0.000631427804
0.000631432331
0.000631437747
0.000631443661
0.000631449665
0.000631455313
0.000631460113
0.000631463563
0.000631465281
0.000631465131
0.000631463308
0.000631460321
0.000631456875
0.000631453728
0.000631451572
0.000631450912
0.000631452025
0.000631454956
0.000631459558
0.000631465544
0.000631472537
0.000631480102
0.00063148777
0.000631495053
0.000631501471
0.000631506596
0.000631510129
0.000631511971
0.000631512278
0.000631511465
0.000631510153
0.000631509061
0.000631508861
0.000631510034
0.000631512783
0.00063151701
0.000631522391
0.000631528487
0.000631534876
0.000631541254
0.000631547472
0.000631553521
0.000631559474
0.00063156543
0.000631571467
0.000631577622
0.000631583899
0.000631590282
0.000631596754
0.000631603305
0.00063160993
0.000631616633
0.000631623413
0.00063163027
0.000631637205
0.000631644208
0.000631651272
0.000631658387
0.000631665539
0.00063167271
0.000631679886
0.000631687041
0.00063169415
0.000631701188
0.000631708119
0.000631714908
0.000631721522
0.000631727917
0.000631734051
0.000631739883
0.000631745364
0.000631750452
0.000631755122
0.000631753261
0.000631747379
0.000631740631
0.000631732998
0.000631724489
0.000631715118
0.000631704915
0.000631693915
0.000631682167
0.000631669739
0.000631656703
0.000631643143
0.000631629162
0.000631614859
0.000631600346
0.000631585744
0.000631571165
0.000631556727
0.000631542541
0.000631528718
0.000631515349
0.000631502526
0.000631490321
0.000631478796
0.000631467999
0.000631457966
0.000631448716
0.000631440257
0.00063143259
0.000631425697
0.000631419558
0.000631414147
0.000631409425
0.000631405354
0.000631401896
0.000631399003
0.000631396634
0.000631394742
0.00063139329
0.000631392231
0.000631391526
0.000631391142
0.00063139104
0.000631391189
0.00063139156
0.000631392122
0.00063139285
0.000631393723
0.000631394716
0.00063139581
0.000631396987
0.000631398226
0.00063139951
0.000631400826
0.000631402154
0.00063140348
0.000631404787
0.000631405241
0.000631405033
0.000631404977
0.000631405055
0.000631405254
0.000631405559
0.000631405963
0.00063140645
0.00063140701
0.000631407636
0.000631408316
0.000631409041
0.000631409807
0.000631410605
0.000631411428
0.000631412274
0.000631413135
0.000631414008
0.000631414889
0.000631415777
0.000631416665
0.000631417555
0.000631418442
0.000631419323
0.000631420198
0.000631421066
0.000631421924
0.000631422769
0.000631423605
0.000631424426
0.000631425232
0.000631426026
0.000631426804
0.000631427564
0.00063142831
0.000631429039
0.00063142975
0.000631430444
0.000631431122
0.000631431782
0.000631432423
0.000631433049
0.000631433656
0.000631434245
0.000631434818
0.000631435378
0.000631435895
0.000631448394
0.000631431205
0.000631437832
0.000631433738
0.000631431542
0.000631431658
0.000631434198
0.00063143288
0.000631426957
0.000631422346
0.000631419594
0.000631418947
0.000631420405
0.00063142375
0.000631428628
0.000631434602
0.000631441225
0.000631448022
0.000631454469
0.000631459981
0.000631463955
0.000631465915
0.000631465656
0.000631463322
0.000631459443
0.00063145486
0.0006314505
0.000631447212
0.000631445631
0.000631446114
0.000631448738
0.000631453347
0.000631459616
0.000631467107
0.000631475313
0.000631483687
0.000631491651
0.000631498637
0.000631504127
0.000631507744
0.000631509334
0.00063150904
0.000631507325
0.000631504919
0.000631502684
0.000631501442
0.000631501794
0.00063150401
0.000631507998
0.000631513382
0.000631519638
0.000631526255
0.000631532858
0.000631539257
0.000631545436
0.000631551483
0.000631557522
0.000631563651
0.000631569923
0.000631576345
0.000631582904
0.00063158958
0.00063159636
0.000631603242
0.00063161023
0.000631617326
0.000631624533
0.000631631853
0.000631639277
0.000631646798
0.000631654409
0.000631662095
0.000631669839
0.000631677626
0.000631685431
0.000631693226
0.000631700988
0.000631708679
0.000631716263
0.000631723706
0.000631730963
0.00063173799
0.000631744747
0.000631751182
0.00063175724
0.000631762843
0.000631760544
0.000631754089
0.000631746696
0.000631738352
0.000631729058
0.000631718828
0.000631707691
0.000631695685
0.000631682866
0.000631669307
0.000631655089
0.000631640311
0.000631625086
0.000631609531
0.000631593778
0.000631577962
0.000631562217
0.000631546679
0.000631531477
0.000631516734
0.000631502558
0.000631489051
0.000631476289
0.000631464342
0.000631453255
0.000631443065
0.000631433785
0.000631425414
0.000631417945
0.00063141135
0.000631405595
0.000631400644
0.000631396446
0.00063139295
0.000631390105
0.000631387855
0.000631386146
0.000631384923
0.00063138414
0.000631383744
0.00063138369
0.000631383939
0.000631384447
0.000631385179
0.000631386106
0.000631387193
0.000631388414
0.000631389747
0.000631391168
0.000631392655
0.000631394192
0.000631395759
0.000631397339
0.000631398929
0.000631400519
0.000631402106
0.000631403271
0.000631403208
0.000631403093
0.000631403122
0.000631403279
0.000631403552
0.000631403927
0.000631404397
0.000631404946
0.000631405564
0.000631406246
0.000631406979
0.000631407755
0.000631408571
0.000631409417
0.000631410286
0.000631411178
0.000631412084
0.000631413001
0.000631413924
0.000631414854
0.000631415782
0.000631416711
0.000631417634
0.000631418552
0.00063141946
0.000631420362
0.000631421251
0.000631422127
0.000631422993
0.000631423843
0.000631424677
0.000631425498
0.000631426302
0.000631427089
0.000631427861
0.000631428614
0.00063142935
0.000631430067
0.000631430769
0.000631431452
0.000631432116
0.000631432764
0.000631433393
0.000631434004
0.000631434599
0.000631435182
0.000631435722
0.000631448267
0.000631430623
0.000631436283
0.000631431587
0.000631429226
0.000631429608
0.000631432754
0.000631433167
0.000631426111
0.0006314204
0.000631416691
0.000631415313
0.000631416313
0.000631419496
0.0006314245
0.000631430866
0.00063143811
0.000631445707
0.000631453064
0.000631459489
0.000631464242
0.000631466696
0.000631466312
0.000631463884
0.000631459377
0.000631453872
0.000631448402
0.000631443953
0.000631441295
0.000631440897
0.000631442908
0.000631447207
0.000631453468
0.000631461233
0.000631469952
0.000631479017
0.000631487768
0.000631495533
0.000631501676
0.000631505702
0.000631507369
0.000631506783
0.000631504428
0.00063150111
0.000631497817
0.000631495517
0.00063149495
0.000631496483
0.000631500064
0.000631505291
0.000631511573
0.000631518314
0.000631525062
0.000631531581
0.000631537837
0.000631543928
0.000631549997
0.000631556163
0.000631562491
0.000631568996
0.000631575663
0.000631582472
0.000631589409
0.000631596471
0.000631603665
0.000631610997
0.000631618471
0.00063162609
0.00063163385
0.000631641744
0.000631649765
0.000631657899
0.000631666131
0.000631674445
0.000631682816
0.000631691219
0.000631699628
0.000631708008
0.000631716322
0.000631724534
0.0006317326
0.000631740473
0.000631748108
0.000631755447
0.000631762435
0.000631769021
0.000631766842
0.000631759852
0.000631751849
0.000631742814
0.000631732751
0.00063172167
0.000631709603
0.000631696588
0.000631682686
0.000631667976
0.00063165255
0.000631636519
0.000631620011
0.000631603163
0.000631586124
0.000631569053
0.000631552105
0.000631535438
0.0006315192
0.000631503534
0.000631488562
0.000631474398
0.000631461127
0.00063144882
0.000631437525
0.000631427272
0.000631418067
0.000631409901
0.000631402753
0.000631396583
0.000631391342
0.000631386978
0.000631383426
0.000631380622
0.000631378501
0.000631376993
0.000631376035
0.000631375563
0.00063137552
0.000631375848
0.000631376495
0.000631377417
0.000631378568
0.000631379909
0.000631381409
0.000631383034
0.000631384755
0.000631386553
0.000631388402
0.000631390285
0.000631392187
0.000631394094
0.000631395992
0.000631397878
0.000631399731
0.000631401542
0.000631401784
0.000631401553
0.000631401481
0.000631401557
0.000631401762
0.000631402084
0.000631402508
0.000631403025
0.000631403621
0.000631404286
0.000631405014
0.000631405792
0.000631406611
0.000631407469
0.000631408356
0.000631409264
0.000631410194
0.000631411136
0.000631412087
0.000631413044
0.000631414005
0.000631414965
0.000631415924
0.000631416877
0.000631417823
0.00063141876
0.000631419689
0.000631420605
0.000631421508
0.000631422399
0.000631423274
0.000631424132
0.000631424977
0.000631425804
0.000631426613
0.000631427406
0.000631428181
0.000631428938
0.000631429676
0.000631430398
0.000631431101
0.000631431785
0.000631432453
0.000631433102
0.000631433733
0.000631434348
0.000631434951
0.000631435504
0.00063144807
0.000631430023
0.000631434666
0.000631429284
0.000631426655
0.000631427222
0.000631431004
0.000631433305
0.000631425095
0.000631418263
0.00063141361
0.000631411548
0.000631412166
0.000631415275
0.000631420489
0.00063142731
0.000631435202
0.000631443583
0.000631451779
0.000631459002
0.000631464399
0.00063146699
0.000631465872
0.000631464218
0.000631458929
0.000631452355
0.000631445681
0.000631440046
0.00063143635
0.00063143516
0.000631436678
0.000631440798
0.000631447179
0.000631455317
0.000631464608
0.000631474367
0.000631483856
0.00063149231
0.000631498999
0.000631503334
0.000631504992
0.000631504031
0.000631500948
0.000631496632
0.000631492205
0.000631488793
0.00063148728
0.000631488128
0.000631491319
0.000631496421
0.000631502771
0.000631509683
0.000631516626
0.000631523313
0.000631529692
0.000631535868
0.000631542005
0.000631548242
0.00063155466
0.000631561281
0.000631568091
0.000631575069
0.0006315822
0.000631589483
0.000631596928
0.000631604544
0.000631612338
0.000631620317
0.000631628477
0.000631636814
0.000631645325
0.000631653995
0.000631662809
0.000631671755
0.000631680805
0.000631689935
0.000631699118
0.000631708317
0.000631717496
0.000631726616
0.000631735631
0.000631744492
0.000631753153
0.000631761553
0.000631769631
0.000631777317
0.000631775942
0.000631768434
0.000631759815
0.000631750067
0.000631739188
0.000631727184
0.000631714086
0.000631699932
0.000631684787
0.000631668739
0.000631651888
0.000631634363
0.00063161631
0.00063159789
0.000631579277
0.000631560658
0.000631542215
0.000631524135
0.000631506592
0.000631489753
0.000631473759
0.000631458737
0.000631444784
0.000631431975
0.000631420357
0.000631409956
0.000631400769
0.000631392774
0.000631385935
0.000631380196
0.00063137549
0.000631371748
0.000631368887
0.000631366826
0.000631365486
0.000631364782
0.000631364638
0.000631364979
0.00063136574
0.000631366854
0.000631368262
0.000631369916
0.000631371767
0.000631373771
0.000631375897
0.000631378108
0.000631380379
0.000631382687
0.000631385008
0.000631387326
0.000631389627
0.000631391895
0.000631394117
0.000631396291
0.000631398407
0.000631399653
0.000631399359
0.000631399241
0.00063139928
0.000631399462
0.000631399769
0.000631400187
0.000631400703
0.000631401307
0.000631401986
0.000631402728
0.000631403529
0.000631404376
0.000631405261
0.000631406182
0.000631407128
0.000631408094
0.000631409079
0.000631410074
0.000631411076
0.000631412081
0.00063141309
0.000631414093
0.000631415095
0.000631416088
0.000631417073
0.000631418046
0.00063141901
0.00063141996
0.000631420894
0.000631421816
0.000631422721
0.000631423608
0.000631424481
0.000631425335
0.00063142617
0.00063142699
0.000631427789
0.000631428571
0.000631429332
0.000631430078
0.000631430804
0.000631431509
0.000631432199
0.00063143287
0.000631433522
0.000631434156
0.000631434781
0.000631435354
0.000631447958
0.000631429412
0.000631433028
0.000631426975
0.000631424115
0.000631424905
0.000631429317
0.00063143353
0.000631424162
0.000631416197
0.000631410563
0.000631407758
0.000631407927
0.000631410896
0.000631416271
0.000631423525
0.000631432082
0.000631441303
0.000631450441
0.000631458602
0.0006314648
0.000631466743
0.000631464852
0.000631464837
0.000631458859
0.000631451292
0.000631443438
0.000631436584
0.000631431772
0.000631429681
0.000631430587
0.000631434416
0.000631440825
0.000631449286
0.000631459142
0.000631469644
0.000631479962
0.000631489217
0.000631496553
0.000631501264
0.000631502946
0.000631501631
0.000631497843
0.000631492555
0.000631487019
0.000631482506
0.000631480037
0.000631480174
0.000631482935
0.000631487867
0.000631494239
0.000631501277
0.000631508372
0.000631515187
0.000631521652
0.000631527877
0.000631534046
0.000631540321
0.000631546796
0.0006315535
0.000631560419
0.000631567532
0.000631574824
0.000631582296
0.000631589959
0.000631597827
0.00063160591
0.00063161422
0.000631622755
0.000631631512
0.000631640489
0.000631649673
0.000631659051
0.000631668609
0.000631678321
0.000631688162
0.000631698105
0.000631708113
0.00063171815
0.000631728177
0.000631738146
0.000631748009
0.000631757716
0.000631767204
0.000631776411
0.000631785267
0.000631785511
0.000631777519
0.000631768317
0.000631757878
0.000631746189
0.000631733254
0.000631719097
0.000631703755
0.000631687296
0.000631669812
0.000631651419
0.000631632258
0.000631612501
0.000631592333
0.00063157196
0.000631551603
0.000631531478
0.000631511808
0.000631492799
0.000631474647
0.000631457517
0.000631441555
0.00063142687
0.000631413541
0.000631401614
0.000631391107
0.000631382005
0.000631374269
0.000631367846
0.000631362657
0.000631358614
0.000631355627
0.000631353591
0.000631352405
0.000631351973
0.000631352194
0.000631352977
0.000631354235
0.000631355894
0.000631357877
0.000631360121
0.000631362571
0.000631365175
0.000631367889
0.000631370677
0.000631373506
0.000631376346
0.000631379179
0.000631381983
0.000631384742
0.000631387448
0.000631390089
0.000631392659
0.000631395156
0.000631397124
0.000631397253
0.000631397064
0.00063139705
0.000631397189
0.000631397469
0.000631397871
0.000631398381
0.000631398984
0.000631399672
0.00063140043
0.000631401249
0.000631402122
0.000631403038
0.000631403989
0.000631404972
0.000631405977
0.000631406998
0.000631408035
0.000631409079
0.000631410128
0.000631411178
0.000631412228
0.000631413273
0.000631414313
0.000631415343
0.000631416364
0.000631417371
0.000631418368
0.000631419349
0.000631420314
0.000631421265
0.000631422197
0.000631423111
0.00063142401
0.000631424888
0.000631425747
0.00063142659
0.000631427412
0.000631428215
0.000631428998
0.000631429764
0.00063143051
0.000631431236
0.000631431946
0.000631432636
0.000631433307
0.000631433961
0.000631434605
0.000631435191
0.000631447818
0.000631428787
0.000631431349
0.0006314246
0.000631421489
0.000631422498
0.000631427562
0.000631433789
0.000631423237
0.000631414114
0.000631407481
0.000631403931
0.000631403656
0.000631406502
0.000631412061
0.000631419773
0.000631429011
0.000631439072
0.000631449126
0.000631458167
0.000631465086
0.0006314657
0.000631463497
0.000631464712
0.000631458618
0.000631449997
0.000631440927
0.000631432843
0.000631426926
0.000631423958
0.000631424282
0.000631427855
0.000631434325
0.000631443129
0.000631453557
0.000631464784
0.000631475894
0.000631485912
0.000631493881
0.00063149899
0.000631500742
0.00063149911
0.000631494629
0.000631488349
0.000631481654
0.00063147598
0.000631472501
0.000631471883
0.000631474186
0.000631478936
0.00063148533
0.000631492506
0.000631499772
0.000631506736
0.000631513305
0.000631519594
0.000631525807
0.000631532125
0.000631538659
0.000631545444
0.000631552471
0.000631559717
0.000631567167
0.000631574825
0.000631582707
0.000631590829
0.000631599209
0.00063160786
0.000631616786
0.000631625985
0.00063163546
0.000631645198
0.000631655187
0.000631665415
0.000631675856
0.000631686485
0.000631697273
0.000631708183
0.000631719176
0.000631730212
0.000631741243
0.000631752219
0.000631763089
0.000631773788
0.000631784252
0.000631794404
0.000631797261
0.000631788826
0.000631779062
0.000631767932
0.000631755413
0.000631741497
0.000631726201
0.000631709559
0.000631691637
0.000631672534
0.000631652377
0.000631631329
0.000631609587
0.000631587368
0.000631564919
0.000631542502
0.000631520379
0.000631498814
0.000631478058
0.000631458343
0.000631439864
0.000631422789
0.00063140724
0.000631393302
0.000631381017
0.000631370394
0.0006313614
0.000631353975
0.000631348042
0.000631343494
0.000631340218
0.000631338097
0.000631337
0.000631336805
0.000631337393
0.000631338646
0.000631340457
0.000631342727
0.00063134537
0.000631348302
0.000631351453
0.000631354764
0.000631358179
0.000631361652
0.00063136515
0.000631368636
0.000631372085
0.000631375479
0.000631378797
0.000631382026
0.000631385158
0.00063138818
0.000631391086
0.000631393874
0.000631394525
0.000631394301
0.000631394269
0.000631394409
0.000631394695
0.000631395116
0.00063139565
0.000631396286
0.000631397007
0.000631397807
0.000631398671
0.000631399588
0.000631400554
0.000631401557
0.000631402589
0.000631403649
0.000631404726
0.000631405816
0.000631406918
0.000631408023
0.00063140913
0.000631410234
0.000631411336
0.000631412429
0.000631413515
0.000631414588
0.00063141565
0.000631416696
0.000631417729
0.000631418745
0.000631419743
0.000631420726
0.000631421689
0.000631422633
0.000631423559
0.000631424466
0.000631425351
0.000631426219
0.000631427066
0.000631427893
0.0006314287
0.000631429488
0.000631430256
0.000631431004
0.000631431734
0.000631432445
0.000631433136
0.000631433808
0.000631434472
0.000631435075
0.000631447738
0.000631428147
0.000631429633
0.000631422175
0.000631418813
0.000631420048
0.000631425775
0.000631434071
0.000631422321
0.000631412022
0.000631404368
0.000631400046
0.000631399304
0.000631402009
0.000631407744
0.000631415916
0.000631425851
0.000631436786
0.000631447806
0.000631457796
0.000631465511
0.000631464616
0.00063146209
0.000631463718
0.000631458583
0.000631448906
0.000631438596
0.000631429243
0.000631422168
0.00063141827
0.000631417965
0.000631421243
0.000631427751
0.000631436898
0.00063144792
0.000631459921
0.000631471891
0.000631482737
0.000631491372
0.000631496869
0.000631498649
0.000631496657
0.00063149145
0.000631484163
0.000631476311
0.000631469482
0.000631464992
0.000631463612
0.000631465445
0.000631469998
0.000631476399
0.000631483696
0.000631491116
0.000631498211
0.000631504864
0.000631511197
0.000631517431
0.000631523771
0.000631530342
0.000631537187
0.000631544299
0.000631551654
0.00063155924
0.000631567062
0.000631575142
0.000631583502
0.000631592163
0.000631601145
0.000631610454
0.000631620094
0.000631630067
0.000631640364
0.000631650974
0.000631661883
0.000631673067
0.000631684498
0.000631696148
0.00063170798
0.000631719953
0.000631732028
0.000631744157
0.000631756289
0.000631768373
0.000631780345
0.00063179214
0.000631803681
0.000631810316
0.000631801493
0.000631791219
0.000631779436
0.000631766106
0.000631751204
0.000631734733
0.000631716719
0.000631697224
0.000631676351
0.000631654238
0.000631631069
0.000631607072
0.000631582506
0.000631557663
0.000631532858
0.000631508413
0.000631484646
0.000631461862
0.000631440339
0.000631420311
0.000631401974
0.000631385465
0.000631370874
0.000631358237
0.000631347546
0.000631338747
0.000631331753
0.000631326451
0.000631322705
0.000631320366
0.000631319284
0.000631319301
0.000631320265
0.000631322034
0.000631324469
0.000631327447
0.000631330854
0.000631334593
0.000631338572
0.000631342715
0.000631346959
0.000631351247
0.000631355531
0.000631359778
0.000631363954
0.000631368034
0.000631372002
0.000631375843
0.000631379545
0.000631383109
0.000631386526
0.000631389802
0.000631391585
0.000631391344
0.000631391299
0.000631391437
0.000631391738
0.000631392179
0.000631392746
0.00063139342
0.000631394187
0.000631395033
0.000631395949
0.000631396923
0.000631397943
0.000631399005
0.000631400099
0.000631401216
0.000631402355
0.000631403507
0.000631404667
0.000631405834
0.000631407
0.000631408165
0.000631409323
0.000631410476
0.000631411617
0.000631412749
0.000631413865
0.000631414968
0.000631416052
0.000631417123
0.000631418174
0.000631419205
0.000631420219
0.000631421212
0.000631422184
0.000631423138
0.00063142407
0.00063142498
0.000631425872
0.000631426742
0.000631427591
0.000631428419
0.000631429229
0.000631430017
0.000631430784
0.000631431534
0.000631432264
0.000631432974
0.000631433665
0.000631434347
0.000631434964
0.000631447651
0.000631427492
0.000631427878
0.000631419697
0.000631416079
0.000631417545
0.000631423947
0.000631434101
0.000631421407
0.000631409911
0.000631401216
0.000631396107
0.000631394891
0.000631397457
0.000631403379
0.000631412033
0.000631422692
0.000631434526
0.000631446531
0.000631457474
0.000631465976
0.000631463322
0.000631460438
0.00063146215
0.000631458508
0.000631447752
0.000631436183
0.000631425545
0.000631417302
0.000631412465
0.000631411527
0.000631414509
0.000631421059
0.000631430553
0.000631442171
0.00063145494
0.000631467755
0.000631479419
0.000631488731
0.000631494652
0.000631496508
0.000631494189
0.000631488268
0.000631479959
0.000631470913
0.000631462881
0.000631457334
0.000631455154
0.00063145649
0.000631460828
0.000631467229
0.000631474649
0.000631482229
0.000631489461
0.000631496203
0.00063150258
0.000631508831
0.00063151518
0.000631521772
0.000631528658
0.000631535833
0.000631543274
0.000631550971
0.000631558934
0.000631567188
0.000631575764
0.00063158469
0.00063159399
0.000631603677
0.000631613758
0.000631624239
0.000631635113
0.000631646372
0.000631658001
0.000631669975
0.000631682266
0.000631694845
0.000631707671
0.000631720704
0.000631733902
0.000631747218
0.0006317606
0.000631774
0.000631787355
0.000631800601
0.00063181366
0.00063182489
0.00063181634
0.000631805617
0.000631793224
0.000631779099
0.000631763197
0.000631745499
0.000631726015
0.000631704798
0.000631681952
0.000631657626
0.000631632027
0.00063160542
0.000631578111
0.000631550454
0.000631522832
0.000631495637
0.000631469264
0.000631444083
0.000631420434
0.000631398598
0.000631378805
0.000631361211
0.000631345907
0.00063133292
0.000631322219
0.000631313719
0.000631307293
0.00063130279
0.000631300029
0.00063129882
0.000631298974
0.000631300296
0.000631302603
0.000631305726
0.000631309502
0.000631313791
0.000631318463
0.000631323411
0.000631328536
0.000631333755
0.000631339005
0.000631344226
0.000631349373
0.000631354412
0.000631359313
0.000631364054
0.000631368625
0.000631373011
0.000631377205
0.000631381206
0.000631385007
0.000631387532
0.000631387763
0.00063138774
0.000631387916
0.000631388264
0.000631388766
0.000631389395
0.00063139014
0.000631390981
0.000631391905
0.000631392898
0.000631393951
0.000631395053
0.000631396193
0.000631397366
0.000631398564
0.000631399778
0.000631401008
0.000631402244
0.000631403483
0.000631404723
0.000631405958
0.000631407187
0.000631408405
0.000631409615
0.000631410808
0.000631411989
0.000631413152
0.000631414298
0.000631415423
0.000631416532
0.00063141762
0.000631418685
0.000631419732
0.000631420757
0.000631421759
0.000631422741
0.000631423701
0.000631424637
0.000631425555
0.000631426449
0.000631427322
0.000631428172
0.000631429004
0.000631429813
0.000631430601
0.000631431371
0.000631432119
0.000631432848
0.000631433557
0.000631434258
0.00063143489
0.000631447609
0.000631426822
0.000631426084
0.000631417166
0.000631413289
0.000631414991
0.00063142208
0.00063143356
0.000631420494
0.000631407779
0.000631398023
0.000631392109
0.000631390406
0.000631392828
0.000631398943
0.000631408093
0.000631419499
0.000631432261
0.000631445282
0.000631457211
0.000631466532
0.000631461884
0.000631458645
0.000631460449
0.000631458542
0.000631446681
0.000631433822
0.000631421863
0.000631412416
0.000631406608
0.000631405011
0.000631407683
0.000631414271
0.000631424122
0.000631436359
0.000631449932
0.000631463636
0.000631476153
0.000631486157
0.000631492488
0.000631494388
0.00063149171
0.000631485047
0.000631475694
0.00063146544
0.000631456194
0.000631449578
0.000631446583
0.000631447407
0.000631451521
0.000631457914
0.000631465451
0.000631473187
0.000631480551
0.000631487374
0.000631493781