/*--------------------------------*- C++ -*----------------------------------*\
| =========                 |                                                 |
| \\      /  F ield         | OpenFOAM: The Open Source CFD Toolbox           |
|  \\    /   O peration     | Version:  v2012                                 |
|   \\  /    A nd           | Website:  www.openfoam.com                      |
|    \\/     M anipulation  |                                                 |
\*---------------------------------------------------------------------------*/
FoamFile
{
    version     2.0;
    format      ascii;
    class       volVectorField;
    location    "2.69";
    object      U;
}
// * * * * * * * * * * * * * * * * * * * * * * * * * * * * * * * * * * * * * //

dimensions      [0 1 -1 0 0 0 0];


internalField   nonuniform List<vector> 
28416
(
(0.100002346 -1.2673669e-05 0)
(0.100017461 -3.1601382e-05 0)
(0.100042406 -3.91422717e-05 0)
(0.100070966 -3.24612375e-05 0)
(0.10009579 -1.17760259e-05 0)
(0.10011251 2.08745784e-05 0)
(0.100119997 6.12377481e-05 0)
(0.10011607 0.000103450288 0)
(0.100098883 0.000143248026 0)
(0.10006949 0.000177045182 0)
(0.100030358 0.000201897951 0)
(0.0999845271 0.000215956169 0)
(0.0999352533 0.0002186718 0)
(0.0998857062 0.000210660879 0)
(0.0998387696 0.000193309341 0)
(0.0997969399 0.000168433156 0)
(0.0997622521 0.000138278327 0)
(0.099736119 0.000105823432 0)
(0.0997190395 7.50080964e-05 0)
(0.0997102797 5.04611364e-05 0)
(0.0997077024 3.66282839e-05 0)
(0.0997079106 3.6631158e-05 0)
(0.0997067002 5.13773039e-05 0)
(0.0996996203 7.9296784e-05 0)
(0.0996827573 0.000116809233 0)
(0.0996537824 0.000159173481 0)
(0.0996122017 0.000201260751 0)
(0.0995589283 0.000238410894 0)
(0.0994959752 0.000266993711 0)
(0.0994260441 0.000284650873 0)
(0.0993520965 0.00029033824 0)
(0.0992770504 0.000284249773 0)
(0.099203589 0.000267689075 0)
(0.0991340414 0.000242938651 0)
(0.0990702821 0.000213127658 0)
(0.0990135708 0.000182072028 0)
(0.0989643372 0.000154026784 0)
(0.0989219537 0.000133270705 0)
(0.0988845585 0.0001235489 0)
(0.0988491024 0.000127475016 0)
(0.0988117884 0.000145995875 0)
(0.098768832 0.000178028728 0)
(0.0987172344 0.000220442291 0)
(0.0986553003 0.000268545273 0)
(0.0985828223 0.000317046929 0)
(0.0985009514 0.000361214432 0)
(0.0984118012 0.000397854599 0)
(0.0983178899 0.000425813562 0)
(0.0982215746 0.000445867963 0)
(0.0981246311 0.000460102671 0)
(0.0980280705 0.000471043152 0)
(0.0979322013 0.000480864044 0)
(0.0978368621 0.00049091505 0)
(0.0977417091 0.000501641122 0)
(0.0976464509 0.000512810497 0)
(0.0975509711 0.000523872614 0)
(0.0974553389 0.000534272526 0)
(0.0973597485 0.000543623081 0)
(0.0972644414 0.000551728281 0)
(0.0971696483 0.000558514265 0)
(0.0970755661 0.000563939584 0)
(0.0969823621 0.000567934052 0)
(0.0968901906 0.000570380412 0)
(0.09679921 0.000571126987 0)
(0.0967095923 0.000570010801 0)
(0.0966215272 0.000566875502 0)
(0.0965352219 0.0005615793 0)
(0.0964508998 0.000553996198 0)
(0.0963688003 0.000544015058 0)
(0.0962891799 0.000531539202 0)
(0.0962123134 0.000516487391 0)
(0.0961384962 0.000498795953 0)
(0.0960680445 0.000478421359 0)
(0.0960012966 0.00045534273 0)
(0.0959386142 0.000429563944 0)
(0.0958803844 0.000401114975 0)
(0.095827023 0.000370052112 0)
(0.0957789802 0.000336456373 0)
(0.0957367511 0.000300427996 0)
(0.0957009064 0.000262073167 0)
(0.095672064 0.000221464816 0)
(0.0956507386 0.000178618038 0)
(0.0956372488 0.00013353655 0)
(0.0956317753 8.62993241e-05 0)
(0.0956339993 3.71299893e-05 0)
(0.0956436486 -1.28974279e-05 0)
(0.0956628224 -6.28265506e-05 0)
(0.0956933912 -0.000113449012 0)
(0.0957349179 -0.000164982789 0)
(0.095787151 -0.000217139587 0)
(0.0958502288 -0.000269603142 0)
(0.095924167 -0.000322028574 0)
(0.0960088467 -0.00037401043 0)
(0.0961040808 -0.00042511108 0)
(0.0962095857 -0.00047487379 0)
(0.0963249597 -0.000522823341 0)
(0.0964496857 -0.000568471712 0)
(0.0965831361 -0.000611329465 0)
(0.0967245784 -0.000650920446 0)
(0.0968731839 -0.000686798629 0)
(0.0970280382 -0.000718565074 0)
(0.0971881531 -0.000745882687 0)
(0.0973524801 -0.000768487359 0)
(0.0975199259 -0.000786195042 0)
(0.0976893706 -0.000798905032 0)
(0.0978596872 -0.000806600134 0)
(0.0980297622 -0.00080934435 0)
(0.0981985156 -0.00080727853 0)
(0.0983649193 -0.000800614208 0)
(0.0985280144 -0.000789625751 0)
(0.0986869239 -0.000774641052 0)
(0.098840864 -0.000756031087 0)
(0.0989891508 -0.000734198802 0)
(0.0991312045 -0.000709567817 0)
(0.0992665507 -0.000682571459 0)
(0.0993948189 -0.000653642564 0)
(0.0995157389 -0.000623204292 0)
(0.0996291346 -0.000591662304 0)
(0.0997349175 -0.000559398251 0)
(0.0998330775 -0.000526764351 0)
(0.0999236749 -0.000494079172 0)
(0.100006832 -0.000461625045 0)
(0.100082726 -0.000429647132 0)
(0.100151578 -0.000398353744 0)
(0.100213646 -0.000367917943 0)
(0.100269211 -0.000338478121 0)
(0.100318573 -0.000310134849 0)
(0.100362049 -0.000282949819 0)
(0.100399984 -0.000256953672 0)
(0.100432745 -0.000232158977 0)
(0.100460701 -0.000208566643 0)
(0.100484218 -0.000186160312 0)
(0.100503653 -0.000164904846 0)
(0.100519369 -0.000144760025 0)
(0.100531724 -0.000125692163 0)
(0.100541066 -0.000107671196 0)
(0.100547725 -9.0666256e-05 0)
(0.100552027 -7.46499315e-05 0)
(0.100554288 -5.96109469e-05 0)
(0.100554809 -4.55659742e-05 0)
(0.100553851 -3.25662271e-05 0)
(0.100551622 -2.07008503e-05 0)
(0.10054823 -1.00918482e-05 0)
(0.100543496 -7.85016571e-07 0)
(0.100537443 7.50033273e-06 0)
(0.100530354 1.48669682e-05 0)
(0.100522317 2.13781407e-05 0)
(0.100513402 2.71207282e-05 0)
(0.100503705 3.21834558e-05 0)
(0.100493336 3.6642342e-05 0)
(0.100482406 4.05607515e-05 0)
(0.100471014 4.39938691e-05 0)
(0.100459249 4.69905366e-05 0)
(0.100447192 4.95935381e-05 0)
(0.100434917 5.18400014e-05 0)
(0.100422489 5.37618347e-05 0)
(0.100409968 5.53862935e-05 0)
(0.100397406 5.67368082e-05 0)
(0.100384847 5.78339595e-05 0)
(0.100372329 5.86964154e-05 0)
(0.100359884 5.93416721e-05 0)
(0.100347541 5.97865127e-05 0)
(0.100335323 6.00471994e-05 0)
(0.10032325 6.01394865e-05 0)
(0.100311341 6.00785454e-05 0)
(0.100299612 5.98788516e-05 0)
(0.100288077 5.955406e-05 0)
(0.100276747 5.91168812e-05 0)
(0.100265635 5.85789724e-05 0)
(0.100254751 5.79508585e-05 0)
(0.100244103 5.72418919e-05 0)
(0.100233699 5.64602656e-05 0)
(0.100223546 5.56130797e-05 0)
(0.100213648 5.4706458e-05 0)
(0.100204012 5.37457006e-05 0)
(0.100194639 5.27354541e-05 0)
(0.100185533 5.16798758e-05 0)
(0.100176695 5.0582774e-05 0)
(0.100168126 4.9447709e-05 0)
(0.100159827 4.82780459e-05 0)
(0.1001518 4.70769589e-05 0)
(0.100144045 4.58473741e-05 0)
(0.100136563 4.45919128e-05 0)
(0.100129354 4.33125189e-05 0)
(0.100122431 4.20112055e-05 0)
(0.100115763 4.06847536e-05 0)
(0.100109478 3.93464627e-05 0)
(0.10010318 3.79187687e-05 0)
(0.100098384 3.67075325e-05 0)
(0.100090353 3.42486642e-05 0)
(0.100001814 -2.76184859e-05 0)
(0.100015982 -6.94698554e-05 0)
(0.100042562 -8.93734861e-05 0)
(0.100075844 -8.3373917e-05 0)
(0.100108094 -5.19320555e-05 0)
(0.100133031 1.2015243e-06 0)
(0.100145584 6.86045193e-05 0)
(0.100142831 0.000140460192 0)
(0.100124466 0.000208547896 0)
(0.100091757 0.00026631861 0)
(0.1000474 0.000308966287 0)
(0.0999949694 0.000333731262 0)
(0.0999383617 0.000339933601 0)
(0.0998814144 0.000328624981 0)
(0.09982766 0.000301947456 0)
(0.0997802075 0.00026263525 0)
(0.099741666 0.000214091893 0)
(0.0997139572 0.00016096487 0)
(0.0996979319 0.000109589915 0)
(0.0996929138 6.76126908e-05 0)
(0.099696439 4.26063127e-05 0)
(0.0997044206 4.01641649e-05 0)
(0.099711705 6.21626763e-05 0)
(0.0997128324 0.000106107353 0)
(0.0997029643 0.00016601113 0)
(0.0996788109 0.000233899443 0)
(0.0996391079 0.000301253787 0)
(0.0995845616 0.000360499154 0)
(0.099517492 0.000405969289 0)
(0.0994412922 0.00043424496 0)
(0.0993598585 0.00044405129 0)
(0.0992771314 0.000435929794 0)
(0.099196781 0.000411890071 0)
(0.0991219983 0.000375179032 0)
(0.0990553253 0.00033017766 0)
(0.0989984456 0.00028233225 0)
(0.0989519125 0.000237955023 0)
(0.0989149047 0.00020371097 0)
(0.0988851325 0.000185731595 0)
(0.0988589691 0.000188477512 0)
(0.0988318465 0.000213645522 0)
(0.0987989242 0.000259499181 0)
(0.0987559507 0.000320934202 0)
(0.0987001043 0.000390403447 0)
(0.09863053 0.000459537926 0)
(0.0985483922 0.000521009955 0)
(0.0984564326 0.000570059808 0)
(0.0983581857 0.000605220403 0)
(0.0982571003 0.000628067274 0)
(0.0981558303 0.000642169024 0)
(0.0980558778 0.000651677206 0)
(0.0979576325 0.000660068766 0)
(0.0978607071 0.000669419173 0)
(0.0977643905 0.000680318824 0)
(0.0976680358 0.000692282285 0)
(0.0975712775 0.000704354021 0)
(0.0974740638 0.000715626019 0)
(0.0973765653 0.000725509403 0)
(0.0972790463 0.000733755949 0)
(0.0971817648 0.000740328705 0)
(0.0970849284 0.000745243381 0)
(0.0969886986 0.000748462189 0)
(0.0968932169 0.000749861997 0)
(0.0967986321 0.000749255041 0)
(0.0967051152 0.000746427136 0)
(0.0966128624 0.000741168167 0)
(0.0965220944 0.000733285958 0)
(0.0964330543 0.000722607146 0)
(0.0963460059 0.000708973725 0)
(0.0962612348 0.000692241221 0)
(0.0961790491 0.000672279833 0)
(0.0960997808 0.000648977408 0)
(0.096023787 0.00062224267 0)
(0.09595145 0.000592007685 0)
(0.0958831773 0.000558229207 0)
(0.0958194026 0.000520888943 0)
(0.0957605857 0.000479992842 0)
(0.0957072132 0.000435568928 0)
(0.0956597973 0.000387661736 0)
(0.0956188697 0.000336320161 0)
(0.0955849404 0.000281560932 0)
(0.0955584437 0.000223372988 0)
(0.0955397716 0.000161811243 0)
(0.0955293737 9.70850842e-05 0)
(0.0955281567 2.95616265e-05 0)
(0.0955368579 -4.01498461e-05 0)
(0.0955555104 -0.000111030871 0)
(0.0955845898 -0.000183233607 0)
(0.0956248025 -0.00025670225 0)
(0.095676417 -0.000331014621 0)
(0.0957395782 -0.000405701828 0)
(0.0958143797 -0.000480255824 0)
(0.0959008013 -0.000554088316 0)
(0.095998708 -0.000626552607 0)
(0.0961078459 -0.000696964676 0)
(0.0962278292 -0.000764615517 0)
(0.0963581369 -0.000828787581 0)
(0.0964981134 -0.000888774277 0)
(0.0966469732 -0.000943899677 0)
(0.0968038083 -0.0009935382 0)
(0.0969675994 -0.00103713375 0)
(0.0971372308 -0.00107421713 0)
(0.0973115082 -0.00110442075 0)
(0.0974891801 -0.00112749004 0)
(0.0976689618 -0.0011432908 0)
(0.0978495607 -0.00115181207 0)
(0.0980297029 -0.00115316453 0)
(0.0982081579 -0.00114757458 0)
(0.098383762 -0.00113537455 0)
(0.098555438 -0.00111698969 0)
(0.0987222116 -0.00109292294 0)
(0.0988832235 -0.00106373805 0)
(0.0990377367 -0.00103004226 0)
(0.0991851411 -0.000992468918 0)
(0.0993249527 -0.000951661114 0)
(0.0994568107 -0.000908256623 0)
(0.0995804714 -0.000862874619 0)
(0.0996958 -0.000816104527 0)
(0.0998027611 -0.000768497001 0)
(0.0999014076 -0.000720556892 0)
(0.0999918697 -0.000672738345 0)
(0.100074344 -0.00062544208 0)
(0.10014908 -0.000579014362 0)
(0.100216374 -0.000533747194 0)
(0.100276554 -0.000489879896 0)
(0.100329978 -0.000447600966 0)
(0.100377025 -0.00040704879 0)
(0.100418087 -0.000368313994 0)
(0.10045356 -0.000331446987 0)
(0.100483841 -0.000296467507 0)
(0.100509331 -0.000263372594 0)
(0.100530435 -0.000232144391 0)
(0.100547535 -0.000202752005 0)
(0.10056099 -0.000175149825 0)
(0.100571147 -0.000149283408 0)
(0.10057835 -0.000125104824 0)
(0.100582927 -0.000102575843 0)
(0.10058518 -8.16576478e-05 0)
(0.100585376 -6.23127835e-05 0)
(0.100583746 -4.45157854e-05 0)
(0.100580468 -2.82414843e-05 0)
(0.100575668 -1.3436792e-05 0)
(0.100569501 -6.37679054e-09 0)
(0.100562249 1.2010624e-05 0)
(0.100554104 2.2761287e-05 0)
(0.100545102 3.23217353e-05 0)
(0.100535313 4.07662398e-05 0)
(0.100524839 4.81876932e-05 0)
(0.100513763 5.46880945e-05 0)
(0.100502166 6.0362536e-05 0)
(0.100490137 6.52923878e-05 0)
(0.100477759 6.95493396e-05 0)
(0.100465105 7.31981502e-05 0)
(0.100452246 7.62969797e-05 0)
(0.100439242 7.88979104e-05 0)
(0.10042615 8.10475933e-05 0)
(0.100413021 8.27878069e-05 0)
(0.100399899 8.41560213e-05 0)
(0.100386824 8.51859577e-05 0)
(0.100373829 8.59081131e-05 0)
(0.100360945 8.63502436e-05 0)
(0.100348197 8.65377738e-05 0)
(0.100335609 8.64941106e-05 0)
(0.100323198 8.62408783e-05 0)
(0.100310981 8.57980921e-05 0)
(0.100298974 8.51842821e-05 0)
(0.100287187 8.4416572e-05 0)
(0.100275632 8.35107277e-05 0)
(0.100264318 8.24811915e-05 0)
(0.100253251 8.13411121e-05 0)
(0.10024244 8.01023819e-05 0)
(0.100231889 7.87756865e-05 0)
(0.100221604 7.73705724e-05 0)
(0.100211587 7.58955277e-05 0)
(0.100201842 7.43580762e-05 0)
(0.10019237 7.27648758e-05 0)
(0.100183175 7.11218127e-05 0)
(0.100174255 6.9434086e-05 0)
(0.100165613 6.77062716e-05 0)
(0.100157247 6.59423582e-05 0)
(0.100149159 6.4145752e-05 0)
(0.100141348 6.23192218e-05 0)
(0.100133816 6.04648707e-05 0)
(0.100126559 5.85836235e-05 0)
(0.100119588 5.66765315e-05 0)
(0.100112869 5.4736768e-05 0)
(0.100106527 5.27836322e-05 0)
(0.100100126 5.0703547e-05 0)
(0.100095244 4.89536119e-05 0)
(0.100086743 4.54791002e-05 0)
(0.100002074 -3.50906152e-05 0)
(0.100016696 -8.92567331e-05 0)
(0.100042745 -0.000117201834 0)
(0.100074694 -0.000114911083 0)
(0.100105385 -8.30334055e-05 0)
(0.100129089 -2.63111454e-05 0)
(0.100141207 4.67098533e-05 0)
(0.100138702 0.000126593268 0)
(0.100120999 0.000203613798 0)
(0.100089332 0.000269582722 0)
(0.100046262 0.000318783343 0)
(0.0999951814 0.00034801085 0)
(0.0999398147 0.000356427966 0)
(0.0998838734 0.000345131634 0)
(0.0998308111 0.000316429638 0)
(0.0997836854 0.000273281878 0)
(0.0997450666 0.000219396919 0)
(0.0997168577 0.000159908674 0)
(0.0996999522 0.000101914589 0)
(0.0996938241 5.40745473e-05 0)
(0.0996962528 2.5029827e-05 0)
(0.0997032467 2.11523389e-05 0)
(0.0997094828 4.48600674e-05 0)
(0.0997095229 9.405538e-05 0)
(0.0996989106 0.000162370765 0)
(0.0996746902 0.000240733329 0)
(0.0996356864 0.000319314801 0)
(0.099582503 0.000389256519 0)
(0.0995172353 0.000443809185 0)
(0.0994430063 0.000478804279 0)
(0.0993634693 0.000492590377 0)
(0.0992823842 0.000485662477 0)
(0.0992033007 0.0004602286 0)
(0.0991293316 0.000419898681 0)
(0.0990629665 0.000369552348 0)
(0.0990058728 0.000315287568 0)
(0.098958666 0.000264244993 0)
(0.0989206807 0.000224080932 0)
(0.0988898093 0.000201977347 0)
(0.0988625619 0.000203330325 0)
(0.0988344962 0.000230440958 0)
(0.0988009641 0.000281636564 0)
(0.0987579375 0.000351238969 0)
(0.0987027125 0.00043055672 0)
(0.0986343566 0.000509728941 0)
(0.0985537816 0.000579932024 0)
(0.0984633969 0.000635280743 0)
(0.0983664338 0.000673824716 0)
(0.0982661483 0.000697360734 0)
(0.0981651424 0.000710217356 0)
(0.0980649885 0.000717529305 0)
(0.0979662168 0.000723648849 0)
(0.0978685922 0.000731195662 0)
(0.0977715204 0.000740917016 0)
(0.0976744142 0.000752187673 0)
(0.0975769147 0.000763778523 0)
(0.0974789426 0.00077452562 0)
(0.0973806294 0.000783687733 0)
(0.0972822051 0.00079097907 0)
(0.0971839048 0.000796401635 0)
(0.097085924 0.000800035354 0)
(0.0969884175 0.000801894824 0)
(0.0968915221 0.000801883683 0)
(0.0967953818 0.000799819403 0)
(0.096700164 0.000795482381 0)
(0.0966060656 0.000788655418 0)
(0.0965133119 0.0007791413 0)
(0.0964221521 0.000766763097 0)
(0.0963328588 0.000751358359 0)
(0.0962457275 0.00073277527 0)
(0.0961610789 0.000710872926 0)
(0.0960792589 0.000685524409 0)
(0.0960006394 0.000656620625 0)
(0.0959256181 0.000624073568 0)
(0.0958546185 0.000587818572 0)
(0.0957880897 0.000547815558 0)
(0.0957265067 0.000504049378 0)
(0.09567037 0.000456529013 0)
(0.0956202032 0.00040528536 0)
(0.095576548 0.000350368443 0)
(0.0955399561 0.000291846047 0)
(0.0955109898 0.000229831148 0)
(0.0954902234 0.000164520609 0)
(0.0954781786 9.6171388e-05 0)
(0.0954749258 2.50658808e-05 0)
(0.0954808352 -4.86035603e-05 0)
(0.0954970916 -0.00012459231 0)
(0.0955244916 -0.000202463465 0)
(0.095563319 -0.000281895198 0)
(0.0956138544 -0.00036248647 0)
(0.0956763727 -0.000443719666 0)
(0.095751043 -0.000525003045 0)
(0.095837909 -0.000605673625 0)
(0.0959368931 -0.000685004317 0)
(0.0960477857 -0.000762219451 0)
(0.096170231 -0.000836509034 0)
(0.0963037205 -0.000907045601 0)
(0.0964475905 -0.000973005619 0)
(0.0966010247 -0.0010335938 0)
(0.0967630597 -0.00108806889 0)
(0.0969325985 -0.00113576934 0)
(0.0971084272 -0.0011761367 0)
(0.0972892372 -0.00120873512 0)
(0.0974736524 -0.00123326575 0)
(0.0976602577 -0.00124957533 0)
(0.0978476305 -0.00125765898 0)
(0.0980343719 -0.00125765725 0)
(0.0982191356 -0.001249848 0)
(0.0984006553 -0.0012346337 0)
(0.098577767 -0.00121252502 0)
(0.0987494279 -0.00118412166 0)
(0.0989147287 -0.00115009137 0)
(0.0990729018 -0.00111114857 0)
(0.0992233247 -0.00106803312 0)
(0.0993655181 -0.00102149059 0)
(0.0994991406 -0.000972254445 0)
(0.0996239804 -0.000921030653 0)
(0.0997399446 -0.000868485074 0)
(0.0998470463 -0.000815233679 0)
(0.0999453919 -0.000761835446 0)
(0.100035167 -0.000708787897 0)
(0.100116623 -0.000656524974 0)
(0.100190068 -0.000605416858 0)
(0.10025585 -0.000555771409 0)
(0.10031435 -0.000507836749 0)
(0.100365969 -0.000461805304 0)
(0.100411123 -0.000417819632 0)
(0.100450232 -0.000375978243 0)
(0.100483724 -0.00033634038 0)
(0.100512027 -0.00029893033 0)
(0.100535557 -0.0002637438 0)
(0.10055471 -0.000230758322 0)
(0.100569877 -0.000199937618 0)
(0.100581447 -0.000171226694 0)
(0.100589781 -0.000144554476 0)
(0.100595209 -0.000119835629 0)
(0.10059805 -9.69757744e-05 0)
(0.100598628 -7.58857677e-05 0)
(0.100597245 -5.64697055e-05 0)
(0.100594185 -3.86394754e-05 0)
(0.100589745 -2.23518731e-05 0)
(0.100584212 -7.60459062e-06 0)
(0.100577591 5.66778666e-06 0)
(0.100569759 1.76588917e-05 0)
(0.100560869 2.84094328e-05 0)
(0.100551116 3.79753421e-05 0)
(0.10054061 4.6448998e-05 0)
(0.100529452 5.39139412e-05 0)
(0.100517739 6.04532033e-05 0)
(0.100505557 6.61518268e-05 0)
(0.100492991 7.10887415e-05 0)
(0.100480121 7.53354166e-05 0)
(0.100467019 7.89572299e-05 0)
(0.100453753 8.20135643e-05 0)
(0.100440383 8.45578072e-05 0)
(0.100426963 8.66377718e-05 0)
(0.100413541 8.82962931e-05 0)
(0.10040016 8.95718884e-05 0)
(0.100386856 9.04994048e-05 0)
(0.100373661 9.11105957e-05 0)
(0.1003606 9.14346073e-05 0)
(0.100347696 9.14983543e-05 0)
(0.10033497 9.13267709e-05 0)
(0.100322437 9.09429639e-05 0)
(0.100310113 9.03683084e-05 0)
(0.100298009 8.96225095e-05 0)
(0.100286137 8.87236456e-05 0)
(0.100274506 8.76882063e-05 0)
(0.100263124 8.65311329e-05 0)
(0.100251998 8.5265871e-05 0)
(0.100241135 8.39044367e-05 0)
(0.10023054 8.24575018e-05 0)
(0.100220215 8.0934498e-05 0)
(0.100210166 7.93437337e-05 0)
(0.100200393 7.76925219e-05 0)
(0.100190899 7.59873065e-05 0)
(0.100181684 7.42337772e-05 0)
(0.100172749 7.24369654e-05 0)
(0.100164092 7.06013103e-05 0)
(0.100155715 6.87306916e-05 0)
(0.100147616 6.68284269e-05 0)
(0.100139794 6.4897213e-05 0)
(0.10013225 6.29391242e-05 0)
(0.10012498 6.09550939e-05 0)
(0.100117993 5.89465809e-05 0)
(0.100111255 5.69069005e-05 0)
(0.100104889 5.48594728e-05 0)
(0.100098475 5.26864974e-05 0)
(0.100093575 5.08801125e-05 0)
(0.100085262 4.7315943e-05 0)
(0.100002001 -4.50327299e-05 0)
(0.100016976 -0.000115586263 0)
(0.100044646 -0.000153094428 0)
(0.100079488 -0.000151739634 0)
(0.100113532 -0.000112090734 0)
(0.100139568 -4.00130872e-05 0)
(0.100153058 5.41875302e-05 0)
(0.100151542 0.000157453658 0)
(0.100133708 0.000256931098 0)
(0.100100534 0.000342236585 0)
(0.100054833 0.000406082048 0)
(0.100000308 0.000444356186 0)
(0.0999410629 0.00045594786 0)
(0.0998812383 0.000442186495 0)
(0.0998247231 0.000405940079 0)
(0.0997749828 0.000350917561 0)
(0.0997349266 0.000281790078 0)
(0.0997066785 0.000205054802 0)
(0.0996911738 0.000129742804 0)
(0.0996876769 6.69401749e-05 0)
(0.0996934435 2.78242872e-05 0)
(0.09970411 2.1039801e-05 0)
(0.0997145734 5.01151757e-05 0)
(0.0997192255 0.000112006241 0)
(0.0997127173 0.000198453061 0)
(0.0996913306 0.000297856426 0)
(0.0996535027 0.000397648544 0)
(0.0995997815 0.00048652264 0)
(0.0995324677 0.000555909399 0)
(0.0994550764 0.000600560622 0)
(0.0993717615 0.000618418703 0)
(0.099286824 0.000610095275 0)
(0.0992043471 0.000578296125 0)
(0.0991279308 0.000527436214 0)
(0.0990604615 0.000463513797 0)
(0.0990038587 0.000394106627 0)
(0.0989587811 0.000328204468 0)
(0.0989243657 0.000275586038 0)
(0.0988981589 0.000245560339 0)
(0.0988762987 0.000245207937 0)
(0.0988539242 0.000277610197 0)
(0.0988258431 0.000340691213 0)
(0.0987874234 0.000427189842 0)
(0.0987354714 0.000525977383 0)
(0.0986688196 0.000624473015 0)
(0.0985884373 0.000711473706 0)
(0.0984970244 0.000779543288 0)
(0.0983982256 0.000826243064 0)
(0.0982957158 0.000853877468 0)
(0.0981924323 0.000867954907 0)
(0.0980901529 0.000875010262 0)
(0.0979894801 0.00088059779 0)
(0.0978901475 0.000888083873 0)
(0.0977914715 0.000898459713 0)
(0.0976927612 0.000910964625 0)
(0.0975935693 0.000924055601 0)
(0.0974937546 0.000936257846 0)
(0.0973934122 0.000946625406 0)
(0.0972927513 0.000954790763 0)
(0.0971919933 0.000960757699 0)
(0.0970913214 0.000964636551 0)
(0.0969908783 0.00096646074 0)
(0.09689079 0.000966125731 0)
(0.0967911926 0.000963417674 0)
(0.0966922494 0.000958073844 0)
(0.0965941564 0.000949830926 0)
(0.0964971409 0.000938446351 0)
(0.096401459 0.000923699453 0)
(0.0963073945 0.000905385219 0)
(0.0962152594 0.000883309804 0)
(0.0961253943 0.000857290902 0)
(0.09603817 0.00082716152 0)
(0.095953987 0.000792774411 0)
(0.0958732761 0.000754005412 0)
(0.0957964968 0.000710755203 0)
(0.0957241367 0.000662949802 0)
(0.0956567089 0.000610540354 0)
(0.0955947503 0.00055350263 0)
(0.0955388178 0.00049183655 0)
(0.0954894828 0.000425566511 0)
(0.0954473252 0.000354744051 0)
(0.0954129233 0.000279452765 0)
(0.0953868328 0.000199807847 0)
(0.0953696126 0.000115965191 0)
(0.0953621344 2.81777431e-05 0)
(0.0953651378 -6.29568564e-05 0)
(0.0953789534 -0.000156941089 0)
(0.0954041331 -0.000253452227 0)
(0.0954413144 -0.000352037631 0)
(0.0954909644 -0.000452115919 0)
(0.095553431 -0.000553022406 0)
(0.0956289687 -0.000654008081 0)
(0.0957177135 -0.000754232213 0)
(0.0958196617 -0.000852771588 0)
(0.0959346543 -0.000948638746 0)
(0.0960623624 -0.00104080262 0)
(0.096202275 -0.00112821303 0)
(0.0963536941 -0.00120982902 0)
(0.0965157352 -0.00128464927 0)
(0.0966873347 -0.0013517433 0)
(0.0968672642 -0.00141028222 0)
(0.0970541523 -0.00145956731 0)
(0.0972465117 -0.00149905477 0)
(0.0974427717 -0.00152837492 0)
(0.0976413153 -0.00154734459 0)
(0.0978405174 -0.0015559718 0)
(0.0980387829 -0.00155445254 0)
(0.098234584 -0.00154316001 0)
(0.0984264925 -0.00152262738 0)
(0.0986132072 -0.00149352529 0)
(0.0987935755 -0.00145663577 0)
(0.0989666079 -0.00141282414 0)
(0.0991314859 -0.00136301049 0)
(0.099287564 -0.00130814214 0)
(0.0994343656 -0.00124916806 0)
(0.0995715749 -0.00118701635 0)
(0.0996990251 -0.00112257502 0)
(0.0998166836 -0.00105667662 0)
(0.0999246361 -0.00099008658 0)
(0.10002307 -0.000923495034 0)
(0.100112257 -0.000857511989 0)
(0.100192539 -0.000792665464 0)
(0.100264309 -0.000729402265 0)
(0.100328 -0.00066809081 0)
(0.100384072 -0.000609025428 0)
(0.100433004 -0.000552431554 0)
(0.100475281 -0.000498471114 0)
(0.10051139 -0.000447248641 0)
(0.100541813 -0.000398819119 0)
(0.100567017 -0.000353197494 0)
(0.10058746 -0.000310365688 0)
(0.10060358 -0.000270273614 0)
(0.100615799 -0.00023284442 0)
(0.100624515 -0.000197987326 0)
(0.100630111 -0.000165605653 0)
(0.100632955 -0.000135591972 0)
(0.100633382 -0.000107833225 0)
(0.100631696 -8.22306164e-05 0)
(0.100628162 -5.87214354e-05 0)
(0.10062295 -3.72477514e-05 0)
(0.10061614 -1.771535e-05 0)
(0.100607879 -1.34116782e-08 0)
(0.100598545 1.58288892e-05 0)
(0.100588393 2.99427118e-05 0)
(0.100577461 4.25145904e-05 0)
(0.10056584 5.36615774e-05 0)
(0.100553635 6.34968022e-05 0)
(0.100540937 7.21310527e-05 0)
(0.10052783 7.96670607e-05 0)
(0.100514392 8.62032725e-05 0)
(0.100500693 9.18318067e-05 0)
(0.100486803 9.66367857e-05 0)
(0.100472781 0.00010069522 0)
(0.100458683 0.000104077748 0)
(0.100444557 0.000106848901 0)
(0.100430447 0.000109067368 0)
(0.100416393 0.00011078633 0)
(0.100402431 0.000112053873 0)
(0.100388592 0.000112913447 0)
(0.100374903 0.00011340434 0)
(0.10036139 0.000113562139 0)
(0.100348073 0.000113419182 0)
(0.10033497 0.00011300495 0)
(0.100322096 0.000112346394 0)
(0.100309463 0.000111468199 0)
(0.100297083 0.000110392988 0)
(0.100284964 0.000109141484 0)
(0.100273112 0.000107732638 0)
(0.100261533 0.000106183728 0)
(0.100250232 0.000104510459 0)
(0.100239212 0.000102727044 0)
(0.100228475 0.000100846295 0)
(0.100218024 9.88797028e-05 0)
(0.10020786 9.68375295e-05 0)
(0.100197983 9.47288902e-05 0)
(0.100188395 9.25618379e-05 0)
(0.100179093 9.03434393e-05 0)
(0.100170079 8.8079846e-05 0)
(0.100161352 8.57763559e-05 0)
(0.10015291 8.34374591e-05 0)
(0.100144752 8.10668706e-05 0)
(0.100136877 7.86675146e-05 0)
(0.100129283 7.62416057e-05 0)
(0.100121967 7.37901109e-05 0)
(0.100114937 7.13149287e-05 0)
(0.100108153 6.8808358e-05 0)
(0.100101742 6.63000962e-05 0)
(0.100095257 6.36470049e-05 0)
(0.100090301 6.14515025e-05 0)
(0.100081661 5.71168897e-05 0)
(0.100002045 -5.47326939e-05 0)
(0.100017065 -0.000141483087 0)
(0.10004459 -0.000189795593 0)
(0.100079173 -0.000192885618 0)
(0.100113215 -0.000150996289 0)
(0.100140354 -7.03807386e-05 0)
(0.100155195 3.72281176e-05 0)
(0.100154006 0.000156285964 0)
(0.100136156 0.000271560847 0)
(0.100103038 0.000370781521 0)
(0.100057322 0.000445457383 0)
(0.100002642 0.000490826501 0)
(0.0999430763 0.000505519548 0)
(0.0998827488 0.000490910308 0)
(0.0998255599 0.000450126588 0)
(0.0997750076 0.000387289466 0)
(0.0997340512 0.000307673975 0)
(0.0997048884 0.000218715269 0)
(0.0996885716 0.000130845854 0)
(0.0996845728 5.69827723e-05 0)
(0.0996906877 1.02826958e-05 0)
(0.0997027581 6.61703338e-07 0)
(0.0997144521 3.23036871e-05 0)
(0.0997195134 0.000102454838 0)
(0.0997133057 0.000201841484 0)
(0.0996924912 0.000316994078 0)
(0.0996555139 0.000433253937 0)
(0.0996028084 0.000537359329 0)
(0.0995365285 0.000619184745 0)
(0.0994600549 0.00067246469 0)
(0.0993774517 0.000694668237 0)
(0.0992929818 0.000686391004 0)
(0.0992107303 0.000650667054 0)
(0.0991343225 0.000592503479 0)
(0.09906669 0.00051873083 0)
(0.0990098284 0.00043801958 0)
(0.0989645513 0.000360714107 0)
(0.098930234 0.000298098876 0)
(0.0989045876 0.000260977194 0)
(0.0988836992 0.000257709254 0)
(0.0988625232 0.00029213863 0)
(0.098835713 0.000362187353 0)
(0.0987985572 0.000459733595 0)
(0.0987478167 0.000572003929 0)
(0.0986822646 0.000684296724 0)
(0.0986027758 0.000783321444 0)
(0.098511952 0.000860113755 0)
(0.0984133846 0.000911607735 0)
(0.0983107615 0.000940427896 0)
(0.0982070834 0.000953107557 0)
(0.0981042105 0.000957492475 0)
(0.0980028169 0.000960307365 0)
(0.0979026798 0.000965664317 0)
(0.0978031276 0.000974802226 0)
(0.0977034588 0.000986820769 0)
(0.097603203 0.000999852117 0)
(0.0975021948 0.00101210177 0)
(0.0974005075 0.00102242038 0)
(0.0972983328 0.00103037262 0)
(0.0971958773 0.00103598714 0)
(0.0970933101 0.00103943096 0)
(0.0969907604 0.0010407805 0)
(0.0968883414 0.00103994279 0)
(0.0967861783 0.00103668787 0)
(0.0966844265 0.00103072216 0)
(0.0965832787 0.00102174847 0)
(0.0964829639 0.00100949334 0)
(0.0963837454 0.000993708577 0)
(0.0962859188 0.000974162608 0)
(0.0961898119 0.000950633975 0)
(0.096095785 0.000922910952 0)
(0.0960042309 0.000890795626 0)
(0.0959155739 0.000854109091 0)
(0.095830268 0.000812695663 0)
(0.0957487957 0.00076642554 0)
(0.095671666 0.00071519627 0)
(0.0955994137 0.000658933644 0)
(0.0955325982 0.00059759246 0)
(0.0954718019 0.000531157474 0)
(0.0954176283 0.000459645292 0)
(0.0953706998 0.000383108606 0)
(0.0953316555 0.000301642963 0)
(0.0953011542 0.000215398826 0)
(0.0952798684 0.000124604836 0)
(0.0952683479 2.95617069e-05 0)
(0.0952672073 -6.95759439e-05 0)
(0.0952772915 -0.000172455861 0)
(0.0952993534 -0.000278580247 0)
(0.095333999 -0.000387430426 0)
(0.095381777 -0.000498391693 0)
(0.0954431692 -0.000610720663 0)
(0.095518552 -0.000723555085 0)
(0.095608169 -0.000835921124 0)
(0.095712111 -0.000946741672 0)
(0.0958302946 -0.00105485204 0)
(0.095962441 -0.00115902217 0)
(0.0961080588 -0.00125798531 0)
(0.0962664331 -0.00135047307 0)
(0.0964366231 -0.00143525526 0)
(0.0966174671 -0.00151118206 0)
(0.0968075983 -0.00157722599 0)
(0.0970054701 -0.00163252068 0)
(0.09720939 -0.00167639385 0)
(0.0974175614 -0.00170839223 0)
(0.0976281299 -0.00172829713 0)
(0.0978392328 -0.00173612947 0)
(0.0980490471 -0.00173214461 0)
(0.0982558355 -0.00171681736 0)
(0.0984579867 -0.00169081866 0)
(0.0986540478 -0.00165498564 0)
(0.0988427497 -0.00161028727 0)
(0.0990230226 -0.00155778775 0)
(0.0991940036 -0.00149860987 0)
(0.0993550362 -0.00143390001 0)
(0.0995056631 -0.00136479641 0)
(0.0996456136 -0.00129240167 0)
(0.0997747867 -0.00121776007 0)
(0.0998932314 -0.00114183992 0)
(0.100001126 -0.00106552106 0)
(0.100098758 -0.00098958677 0)
(0.1001865 -0.000914719981 0)
(0.100264795 -0.000841502994 0)
(0.100334134 -0.000770419974 0)
(0.100395043 -0.000701861623 0)
(0.100448069 -0.000636131504 0)
(0.100493768 -0.000573453648 0)
(0.100532693 -0.000513981153 0)
(0.100565391 -0.000457805238 0)
(0.100592393 -0.000404963866 0)
(0.100614211 -0.000355449698 0)
(0.100631336 -0.000309217978 0)
(0.100644233 -0.000266194755 0)
(0.100653339 -0.000226284705 0)
(0.100659066 -0.000189377349 0)
(0.100661796 -0.000155349848 0)
(0.100661875 -0.000124076464 0)
(0.100659615 -9.54320077e-05 0)
(0.100655278 -6.92809168e-05 0)
(0.100649121 -4.54832222e-05 0)
(0.100641465 -2.38938865e-05 0)
(0.100632667 -4.35407008e-06 0)
(0.100622875 1.32848099e-05 0)
(0.100612115 2.92053519e-05 0)
(0.100600513 4.34532856e-05 0)
(0.100588203 5.61292371e-05 0)
(0.100575297 6.73490322e-05 0)
(0.100561895 7.72223471e-05 0)
(0.100548087 8.58571848e-05 0)
(0.100533957 9.33568077e-05 0)
(0.100519577 9.9819769e-05 0)
(0.100505016 0.000105339331 0)
(0.100490337 0.000110002113 0)
(0.100475597 0.000113887943 0)
(0.100460847 0.000117070187 0)
(0.100446136 0.000119616047 0)
(0.100431503 0.000121586941 0)
(0.100416986 0.000123038944 0)
(0.100402615 0.000124023222 0)
(0.100388415 0.000124586422 0)
(0.100374411 0.000124771048 0)
(0.100360619 0.000124615796 0)
(0.100347056 0.000124155875 0)