/*--------------------------------*- C++ -*----------------------------------*\
| =========                 |                                                 |
| \\      /  F ield         | OpenFOAM: The Open Source CFD Toolbox           |
|  \\    /   O peration     | Version:  v2012                                 |
|   \\  /    A nd           | Website:  www.openfoam.com                      |
|    \\/     M anipulation  |                                                 |
\*---------------------------------------------------------------------------*/
FoamFile
{
    version     2.0;
    format      ascii;
    class       surfaceVectorField;
    location    "2.69";
    object      Uf;
}
// * * * * * * * * * * * * * * * * * * * * * * * * * * * * * * * * * * * * * //

dimensions      [0 1 -1 0 0 0 0];


internalField   nonuniform List<vector> 
56481
(
(0.100009273 -2.21375263e-05 0)
(0.10000208 -2.1656844e-05 0)
(0.100030148 -3.53718265e-05 0)
(0.100016721 -5.28990713e-05 0)
(0.100056925 -3.58017546e-05 0)
(0.100042484 -6.6924422e-05 0)
(0.100083552 -2.21186308e-05 0)
(0.100073405 -6.03954595e-05 0)
(0.100103856 4.54927487e-06 0)
(0.100101942 -3.36209265e-05 0)
(0.100115905 4.10561633e-05 0)
(0.10012277 9.6915393e-06 0)
(0.100118035 8.23440181e-05 0)
(0.100132791 6.27217696e-05 0)
(0.100107472 0.000123349159 0)
(0.100129451 0.000120160966 0)
(0.100084206 0.000160146603 0)
(0.100111675 0.000174871665 0)
(0.100049985 0.000189471567 0)
(0.100080623 0.000221358356 0)
(0.100007538 0.000208927059 0)
(0.100038879 0.000255617932 0)
(0.0999600139 0.000217313984 0)
(0.0999897483 0.000275360834 0)
(0.0999106298 0.000214666339 0)
(0.0999368075 0.000280001951 0)
(0.0998624158 0.000201985109 0)
(0.0998835603 0.000270394803 0)
(0.0998180611 0.000180871249 0)
(0.0998332148 0.000248323788 0)
(0.0997798277 0.000153355741 0)
(0.0997885737 0.000216087764 0)
(0.0997494356 0.000122050878 0)
(0.0997519591 0.00017654177 0)
(0.099727836 9.04157654e-05 0)
(0.0997250381 0.000133539382 0)
(0.0997149049 6.27346164e-05 0)
(0.0997084857 9.22699888e-05 0)
(0.0997091991 4.35447095e-05 0)
(0.0997015967 5.89333356e-05 0)
(0.0997079621 3.66297209e-05 0)
(0.0997020707 3.9592151e-05 0)
(0.0997074484 4.4004231e-05 0)
(0.0997061656 3.85909129e-05 0)
(0.0997033789 6.53370452e-05 0)
(0.0997092026 5.72909929e-05 0)
(0.0996914829 9.80530067e-05 0)
(0.0997062264 9.36394633e-05 0)
(0.0996685363 0.000137991357 0)
(0.0996928608 0.000142799951 0)
(0.0996332748 0.000180217116 0)
(0.0996662967 0.000198406385 0)
(0.0995858759 0.000219835824 0)
(0.0996256548 0.00025359617 0)
(0.0995277899 0.000252702302 0)
(0.0995717449 0.000302224376 0)
(0.0994613701 0.000275822292 0)
(0.0995067336 0.000339630526 0)
(0.0993894463 0.000287494557 0)
(0.0994336682 0.000362923386 0)
(0.0993149594 0.000287294007 0)
(0.0993559775 0.000370946984 0)
(0.0992407097 0.000275969424 0)
(0.0992770909 0.000364074359 0)
(0.099169202 0.000255313863 0)
(0.099200185 0.000343965772 0)
(0.0991025361 0.000228033154 0)
(0.0991280199 0.000313384699 0)
(0.0990422795 0.000197599843 0)
(0.0990628037 0.000276079082 0)
(0.0989892872 0.000168049406 0)
(0.0990060082 0.00023667286 0)
(0.0989434739 0.000143648744 0)
(0.0989581248 0.000200456614 0)
(0.0989035992 0.000128409802 0)
(0.0989184292 0.000172943421 0)
(0.098867198 0.000125511958 0)
(0.0988848455 0.000159151274 0)
(0.0988308289 0.000136735445 0)
(0.0988540357 0.000162693913 0)
(0.0987906895 0.000162012301 0)
(0.0988218175 0.000184901621 0)
(0.0987433894 0.000199235509 0)
(0.0987838781 0.000224294182 0)
(0.0986865878 0.000244493782 0)
(0.0987365926 0.000276661711 0)
(0.0986193388 0.000292796101 0)
(0.0986777023 0.000335825417 0)
(0.0985421192 0.00033913068 0)
(0.0986066762 0.000394938073 0)
(0.0984565642 0.000379534515 0)
(0.0985246718 0.000447976337 0)
(0.0983649907 0.000411834081 0)
(0.0984341169 0.000490976715 0)
(0.0982698364 0.000435840762 0)
(0.0983380378 0.000522639638 0)
(0.0981731676 0.000452985317 0)
(0.0982393375 0.000544149079 0)
(0.0980763774 0.000465572912 0)
(0.0981402307 0.000558337717 0)
(0.097980125 0.000475953598 0)
(0.0980419742 0.000568548611 0)
(0.0978844834 0.000485889547 0)
(0.0979449169 0.000577610503 0)
(0.0977892 0.000496278086 0)
(0.0978487846 0.000587237142 0)
(0.0976939576 0.00050722581 0)
(0.0977530498 0.000597946081 0)
(0.097598553 0.000518341555 0)
(0.0976572433 0.00060937836 0)
(0.0975029634 0.00052907257 0)
(0.0975611243 0.000620781334 0)
(0.0974073211 0.000538947803 0)
(0.0974647013 0.000631425173 0)
(0.0973118444 0.000547675681 0)
(0.0973681569 0.0006408247 0)
(0.0972167698 0.000555121273 0)
(0.0972717439 0.000648761485 0)
(0.0971223111 0.000561226925 0)
(0.0971757066 0.000655184267 0)
(0.0970286505 0.000565936818 0)
(0.0970802473 0.000660084509 0)
(0.0969359489 0.000569157232 0)
(0.0969855303 0.000663412581 0)
(0.0968443626 0.000570753699 0)
(0.0968917037 0.000665052566 0)
(0.0967540565 0.000570568894 0)
(0.0967989211 0.000664838738 0)
(0.0966652113 0.000568443151 0)
(0.0967073538 0.000662585739 0)
(0.0965780254 0.000564227401 0)
(0.0966171948 0.000658112456 0)
(0.0964927139 0.000557787749 0)
(0.0965286581 0.000651253367 0)
(0.096409508 0.000549005628 0)
(0.096441977 0.000641859792 0)
(0.0963286551 0.00053777713 0)
(0.0963574031 0.000629797511 0)
(0.0962504204 0.000524013296 0)
(0.0962752073 0.000614945494 0)
(0.0961750888 0.000507641671 0)
(0.0961956813 0.000597196985 0)
(0.0961029655 0.000488608657 0)
(0.0961191385 0.000576462168 0)
(0.0960343774 0.000466882045 0)
(0.0960459158 0.000552671178 0)
(0.0959696743 0.000442453336 0)
(0.0959763733 0.000525776681 0)
(0.09590923 0.000415339461 0)
(0.0959108958 0.000495755685 0)
(0.0958534453 0.000385583543 0)
(0.0958498935 0.000462610479 0)
(0.0958027516 0.000353254241 0)
(0.0957938043 0.000426368681 0)
(0.0957576178 0.000318442186 0)
(0.0957430967 0.000387081353 0)
(0.0957185669 0.000281250581 0)
(0.0956982742 0.000344816006 0)
(0.0956862304 0.00024176899 0)
(0.095659888 0.000299635752 0)
(0.095661205 0.000200041429 0)
(0.0956285022 0.000251530416 0)
(0.0956438543 0.000156077294 0)
(0.0956045911 0.000200498034 0)
(0.0956344194 0.000109917937 0)
(0.0955885102 0.000146689957 0)
(0.095632875 6.17146546e-05 0)
(0.0955805745 9.04308004e-05 0)
(0.0956386921 1.21162829e-05 0)
(0.095581078 3.23052748e-05 0)
(0.0956528039 -3.78619914e-05 0)
(0.0955902532 -2.78404015e-05 0)
(0.0956780056 -8.81377792e-05 0)
(0.0956091664 -8.90351603e-05 0)
(0.0957140162 -0.0001392159 0)
(0.0956389905 -0.00015109784 0)
(0.0957608571 -0.000191061188 0)
(0.0956798602 -0.000214213153 0)
(0.0958185366 -0.000243371367 0)
(0.095731784 -0.000278028777 0)
(0.0958870589 -0.000295815855 0)
(0.0957949035 -0.000342186444 0)
(0.0959663717 -0.000348019502 0)
(0.0958692734 -0.000406263742 0)
(0.0960563362 -0.000399560757 0)
(0.095954824 -0.00046975672 0)
(0.0961567159 -0.000449992433 0)
(0.0960513944 -0.000532118013 0)
(0.0962671661 -0.000498848566 0)
(0.0961587158 -0.000592771166 0)
(0.0963872281 -0.000545647529 0)
(0.0962763945 -0.000651116523 0)
(0.09651633 -0.000589900587 0)
(0.0964039113 -0.000706543419 0)
(0.0966537915 -0.000631124955 0)
(0.0965406247 -0.000758446014 0)
(0.0967988318 -0.000668859539 0)
(0.0966857758 -0.000806240665 0)
(0.0969505792 -0.00070268185 0)
(0.0968384961 -0.000849384463 0)
(0.0971080821 -0.000732223881 0)
(0.0969978188 -0.000887393557 0)
(0.0972703216 -0.000757185023 0)
(0.097162692 -0.000919859445 0)
(0.0974362264 -0.000777341201 0)
(0.0973319942 -0.000946462113 0)
(0.0976046895 -0.000792550037 0)
(0.097504553 -0.000966979399 0)
(0.0977745872 -0.000802752583 0)
(0.0976791662 -0.000981292401 0)
(0.0979447987 -0.000807972242 0)
(0.097854624 -0.000989387046 0)
(0.0981142269 -0.00080831144 0)
(0.0980297326 -0.000991352107 0)
(0.0982818175 -0.000803946369 0)
(0.0982033368 -0.000987373976 0)
(0.0984465769 -0.000795119979 0)
(0.0983743407 -0.000977728554 0)
(0.098607587 -0.000782133403 0)
(0.0985417262 -0.000962770678 0)
(0.0987640174 -0.00076533607 0)
(0.0987045678 -0.000942921599 0)
(0.0989151343 -0.000745114944 0)
(0.0988620438 -0.000918655149 0)
(0.099060306 -0.00072188331 0)
(0.0990134438 -0.000890483244 0)
(0.0991990055 -0.000696069638 0)
(0.0991581728 -0.000858941365 0)
(0.0993308106 -0.00066810701 0)
(0.0992957517 -0.000824574646 0)
(0.099455401 -0.000638423429 0)
(0.0994258148 -0.00078792506 0)
(0.0995725538 -0.000607433298 0)
(0.0995481051 -0.000749520025 0)
(0.0996821368 -0.000575530276 0)
(0.0996624673 -0.000709862753 0)
(0.0997841012 -0.000543081302 0)
(0.0997688393 -0.000669424377 0)
(0.0998784726 -0.000510421761 0)
(0.0998672425 -0.00062863773 0)
(0.099965343 -0.000477852109 0)
(0.0999577723 -0.00058789294 0)
(0.100044862 -0.000445636087 0)
(0.100040588 -0.000547534876 0)
(0.100117228 -0.000414000439 0)
(0.100115903 -0.000507862047 0)
(0.100182681 -0.000383135844 0)
(0.100183976 -0.000469126396 0)
(0.10024149 -0.000353198031 0)
(0.1002451 -0.000431534373 0)
(0.100293946 -0.000324306486 0)
(0.100299595 -0.000395248699 0)
(0.10034036 -0.000296542334 0)
(0.100347799 -0.000360389944 0)
(0.100381064 -0.000269951745 0)
(0.100390068 -0.000327040481 0)
(0.100416411 -0.000244556326 0)
(0.100426772 -0.000295250768 0)
(0.100446768 -0.00022036281 0)
(0.100458293 -0.000265044627 0)
(0.1004725 -0.000197363477 0)
(0.100485016 -0.000236422964 0)
(0.100493969 -0.00017553258 0)
(0.100507326 -0.00020936822 0)
(0.100511538 -0.000154832436 0)
(0.100525594 -0.000183850222 0)
(0.10052557 -0.000135226093 0)
(0.100540179 -0.00015983022 0)
(0.100536415 -0.00011668168 0)
(0.100551436 -0.00013726037 0)
(0.100544413 -9.91687261e-05 0)
(0.100559708 -0.000116094416 0)
(0.100549892 -8.2658093e-05 0)
(0.100565326 -9.62930297e-05 0)
(0.100553176 -6.71304398e-05 0)
(0.100568603 -7.78221046e-05 0)
(0.100554573 -5.25884605e-05 0)
(0.100569832 -6.06567399e-05 0)
(0.100554368 -3.90661007e-05 0)
(0.100569277 -4.47906164e-05 0)
(0.100552792 -2.66335382e-05 0)
(0.10056716 -3.02337571e-05 0)
(0.100549975 -1.53963497e-05 0)
(0.100563645 -1.69882779e-05 0)
(0.100545915 -5.43843197e-06 0)
(0.100558866 -5.06134382e-06 0)
(0.100540379 3.35765772e-06 0)
(0.100552872 5.67042022e-06 0)
(0.10053388 1.11836505e-05 0)
(0.100545774 1.53038175e-05 0)
(0.100526347 1.81225544e-05 0)
(0.100537728 2.38650652e-05 0)
(0.100517871 2.42494347e-05 0)
(0.100528815 3.14152158e-05 0)
(0.10050856 2.96520918e-05 0)
(0.100519121 3.80557998e-05 0)
(0.100498527 3.44128989e-05 0)
(0.100508734 4.38862259e-05 0)
(0.100487879 3.86015469e-05 0)
(0.100497751 4.89928836e-05 0)
(0.100476718 4.22773101e-05 0)
(0.100486272 5.34494008e-05 0)
(0.10046514 4.54922029e-05 0)
(0.100474387 5.73205182e-05 0)
(0.100453229 4.82920375e-05 0)
(0.100462177 6.06638369e-05 0)
(0.100441062 5.07167697e-05 0)
(0.100449719 6.35302941e-05 0)
(0.100428711 5.28009181e-05 0)
(0.100437079 6.59649138e-05 0)
(0.100416237 5.45740642e-05 0)
(0.10042432 6.80074362e-05 0)
(0.100403696 5.60615508e-05 0)
(0.100411495 6.96928901e-05 0)
(0.100391135 5.72853838e-05 0)
(0.100398653 7.10522655e-05 0)
(0.100378596 5.82651874e-05 0)
(0.100385835 7.21132459e-05 0)
(0.100366115 5.90190438e-05 0)
(0.100373079 7.29009076e-05 0)
(0.100353721 5.95640924e-05 0)
(0.100360414 7.34383088e-05 0)
(0.10034144 5.9916856e-05 0)
(0.100347869 7.37469087e-05 0)
(0.100329295 6.00933429e-05 0)
(0.100335466 7.38468175e-05 0)
(0.100317304 6.01090159e-05 0)
(0.100323224 7.37569274e-05 0)
(0.100305485 5.99786985e-05 0)
(0.100311161 7.34949746e-05 0)
(0.100293853 5.97164558e-05 0)
(0.100299293 7.30775596e-05 0)
(0.10028242 5.93354706e-05 0)
(0.100287632 7.25201384e-05 0)
(0.100271199 5.88479268e-05 0)
(0.10027619 7.18369979e-05 0)
(0.100260201 5.82649154e-05 0)
(0.100264976 7.10412281e-05 0)
(0.100249435 5.75963752e-05 0)
(0.100254001 7.01447043e-05 0)
(0.100238909 5.68510787e-05 0)
(0.100243271 6.91580897e-05 0)
(0.10022863 5.60366726e-05 0)
(0.100232794 6.80908675e-05 0)
(0.100218605 5.51597689e-05 0)
(0.100222575 6.69514079e-05 0)
(0.100208838 5.42260793e-05 0)
(0.100212618 6.57470652e-05 0)
(0.100199334 5.32405773e-05 0)
(0.100202927 6.44842979e-05 0)
(0.100190094 5.2207665e-05 0)
(0.100193505 6.3168801e-05 0)
(0.100181122 5.11313249e-05 0)
(0.100184354 6.18056314e-05 0)
(0.100172418 5.00152415e-05 0)
(0.100175475 6.0399317e-05 0)
(0.100163984 4.88628774e-05 0)
(0.100166869 5.89539368e-05 0)
(0.100155821 4.76775025e-05 0)
(0.100158537 5.74731615e-05 0)
(0.10014793 4.64621665e-05 0)
(0.10015048 5.59602542e-05 0)
(0.100140311 4.52196434e-05 0)
(0.100142696 5.44180084e-05 0)
(0.100132966 4.39522159e-05 0)
(0.100135189 5.28486914e-05 0)
(0.100125897 4.26618622e-05 0)
(0.100127956 5.12535832e-05 0)
(0.100119108 4.13479795e-05 0)
(0.100121009 4.96339047e-05 0)
(0.100112604 4.00156082e-05 0)
(0.100114316 4.79841087e-05 0)
(0.100106392 3.86326157e-05 0)
(0.100108002 4.6318833e-05 0)
(0.100100497 3.73131506e-05 0)
(0.100101653 4.45399176e-05 0)
(0.100094901 3.54780984e-05 0)
(0.100096814 4.30152237e-05 0)
(0.100088548 3.99751019e-05 0)
(0.100007685 -4.85441725e-05 0)
(0.100001944 -3.05060203e-05 0)
(0.100029447 -7.94216699e-05 0)
(0.100016339 -7.79587679e-05 0)
(0.100059622 -8.63737016e-05 0)
(0.100042654 -0.000101671343 0)
(0.100091973 -6.76529849e-05 0)
(0.100075269 -9.76479491e-05 0)
(0.100120399 -2.53652679e-05 0)
(0.10010674 -6.63536319e-05 0)
(0.100139386 3.49030218e-05 0)
(0.10013106 -1.21730733e-05 0)
(0.100144181 0.000104532356 0)
(0.100143396 5.72009095e-05 0)
(0.100133635 0.000174504047 0)
(0.100140767 0.000132304172 0)
(0.100108115 0.000237433251 0)
(0.100122733 0.000204259301 0)
(0.100069621 0.00028764245 0)
(0.100090545 0.000265684436 0)
(0.100021267 0.000321348773 0)
(0.100046831 0.000311298076 0)
(0.0999667744 0.000336832431 0)
(0.0999950754 0.000338109977 0)
(0.099910018 0.000334279291 0)
(0.0999390882 0.000345357782 0)
(0.0998546886 0.000315286218 0)
(0.0998826439 0.000334107443 0)
(0.0998041051 0.000282291355 0)
(0.0998292355 0.000306571533 0)
(0.0997611233 0.000238363572 0)
(0.0997819464 0.000265581874 0)
(0.0997280078 0.000187528379 0)
(0.0997433663 0.000214674782 0)
(0.0997061459 0.000135277394 0)
(0.0997154074 0.000158713729 0)
(0.0996956291 8.86013028e-05 0)
(0.0996989421 0.000104380219 0)
(0.0996948899 5.51095007e-05 0)
(0.0996933689 5.97845942e-05 0)
(0.0997006428 4.13852389e-05 0)
(0.0996963459 3.29675873e-05 0)
(0.0997082796 5.11634206e-05 0)
(0.0997038337 2.97969675e-05 0)
(0.0997125137 8.41350165e-05 0)
(0.0997105939 5.24153964e-05 0)
(0.0997081742 0.000136059239 0)
(0.0997111777 9.86364256e-05 0)
(0.0996911725 0.000199955286 0)
(0.0997009374 0.000162377715 0)
(0.099659255 0.000267576615 0)
(0.0996767505 0.000235159807 0)
(0.0996121468 0.000330876473 0)
(0.0996373971 0.000307841997 0)
(0.0995513585 0.000383234221 0)
(0.0995835323 0.000372223068 0)
(0.0994797421 0.000420107124 0)
(0.0995173637 0.000422097839 0)
(0.0994009393 0.000439148125 0)
(0.0994421493 0.000453666007 0)
(0.0993188688 0.000439990542 0)
(0.0993616639 0.000465452346 0)
(0.0992373366 0.000423909932 0)
(0.0992797578 0.000457959944 0)
(0.0991597736 0.000393534551 0)
(0.0992000408 0.00043328077 0)
(0.0990890476 0.000352678346 0)
(0.099125665 0.000394826751 0)
(0.0990272709 0.000306254955 0)
(0.0990591459 0.000347215805 0)
(0.098975563 0.000260143637 0)
(0.0990021592 0.000296215312 0)
(0.0989337939 0.000220832997 0)
(0.0989552893 0.000248554412 0)
(0.098900404 0.000194721282 0)
(0.0989177927 0.000211392394 0)
(0.0988724268 0.000187104554 0)
(0.0988874709 0.000191367446 0)
(0.0988457676 0.000201061517 0)
(0.0988607655 0.000193392344 0)
(0.0988157292 0.000236572351 0)
(0.0988331714 0.000219491305 0)
(0.0987777638 0.000290216691 0)
(0.0987999442 0.000268011858 0)
(0.0987283305 0.000355668824 0)
(0.0987569441 0.000333584952 0)
(0.0986655901 0.000424970687 0)
(0.0987014084 0.000408071915 0)
(0.098589699 0.000490273941 0)
(0.0986324433 0.000482327783 0)
(0.098502612 0.000545534881 0)
(0.0985510869 0.00054825833 0)
(0.0984074684 0.000587640106 0)
(0.0984599147 0.000600535991 0)
(0.0983077607 0.000616643839 0)
(0.0983623098 0.000637454602 0)
(0.0982065407 0.000635118149 0)
(0.0982616243 0.000660705446 0)
(0.0981058869 0.000646923115 0)
(0.0981604864 0.000674242074 0)
(0.0980067456 0.000655872986 0)
(0.0980604332 0.000682711284 0)
(0.0979091185 0.00066474397 0)
(0.0979619246 0.000690029533 0)
(0.097812457 0.000674868999 0)
(0.0978646497 0.00069854431 0)
(0.0977160826 0.000686300555 0)
(0.0977679554 0.000708922752 0)
(0.0976194893 0.000698318153 0)
(0.097671225 0.000720606895 0)
(0.0975224691 0.00070999002 0)
(0.0975740961 0.000732501589 0)
(0.0974250816 0.000720567711 0)
(0.0974765032 0.000743568314 0)
(0.0973275447 0.000729632676 0)
(0.0973785974 0.000753139932 0)
(0.0972301197 0.000737042327 0)
(0.0972806257 0.000760947808 0)
(0.0971330398 0.000742786043 0)
(0.0971828348 0.000766973301 0)
(0.0970364895 0.000746852785 0)
(0.0970854262 0.000771263601 0)
(0.0969406205 0.000749162093 0)
(0.096988558 0.000773807196 0)
(0.096845578 0.000749558519 0)
(0.0968923695 0.000774495413 0)
(0.0967515215 0.000747841088 0)
(0.096797007 0.000773146176 0)
(0.096658634 0.000743797651 0)
(0.0967026396 0.000769547083 0)
(0.0965671242 0.000737227063 0)
(0.096609464 0.000763487473 0)
(0.0964772236 0.000727946552 0)
(0.0965177031 0.000754775214 0)
(0.0963891854 0.000715790435 0)
(0.0964276032 0.000743237047 0)
(0.0963032839 0.000700607474 0)
(0.0963394324 0.000728714384 0)
(0.0962198154 0.000682260527 0)
(0.0962534812 0.000711060746 0)
(0.0961390996 0.000660628619 0)
(0.096170064 0.000690142438 0)
(0.0960614807 0.00063561004 0)
(0.0960895199 0.000665841495 0)
(0.0959873279 0.000607125178 0)
(0.0960122132 0.000638059221 0)
(0.0959170358 0.000575118445 0)
(0.095938534 0.000606719127 0)
(0.0958510244 0.000539559077 0)
(0.0958688979 0.000571768809 0)
(0.0957897397 0.000500440893 0)
(0.0958037462 0.000533180717 0)
(0.0957336543 0.000457780883 0)
(0.0957435462 0.000490951821 0)
(0.0956832682 0.000411615334 0)
(0.0956887916 0.000445101814 0)
(0.0956391062 0.000361990948 0)
(0.0956400003 0.000395669211 0)
(0.095601701 0.000308940544 0)
(0.0955977088 0.000342708338 0)
(0.0955715196 0.000252466962 0)
(0.0955624483 0.000286284765 0)
(0.0955489523 0.000192592115 0)
(0.0955347168 0.000226484605 0)
(0.0955344145 0.000129448163 0)
(0.0955149975 0.000163430466 0)
(0.0955285292 6.33233524e-05 0)
(0.0955037762 9.72078103e-05 0)
(0.0955324446 -5.29410679e-06 0)
(0.0955015412 2.7796592e-05 0)
(0.0955460034 -7.55903616e-05 0)
(0.0955088465 -4.34535531e-05 0)
(0.0955698338 -0.000147132236 0)
(0.095526301 -0.000116476252 0)
(0.0956045415 -0.000219967928 0)
(0.0955545407 -0.000191064213 0)
(0.0956504511 -0.000293858436 0)
(0.0955940607 -0.000267078815 0)
(0.0957078355 -0.000368358228 0)
(0.0956451357 -0.000344107695 0)
(0.0957768253 -0.000442978823 0)
(0.0957079754 -0.000421629255 0)
(0.0958574434 -0.00051717207 0)
(0.0957827114 -0.000499096677 0)
(0.0959496141 -0.000590320464 0)
(0.0958693552 -0.000575892661 0)
(0.0960531452 -0.000661758638 0)
(0.0959678006 -0.00065133564 0)
(0.0961677163 -0.000730790096 0)
(0.0960778158 -0.000724701588 0)
(0.0962928742 -0.000796701552 0)
(0.0961990301 -0.000795237681 0)
(0.0964280307 -0.000858780926 0)
(0.0963309287 -0.000862178167 0)
(0.0965724653 -0.000916336977 0)
(0.096472852 -0.000924764597 0)
(0.0967253309 -0.000968718941 0)
(0.0966239989 -0.000982267712 0)
(0.0968856636 -0.00101533598 0)
(0.096783434 -0.00103401 0)
(0.0970523955 -0.00105567544 0)
(0.096950099 -0.00107938789 0)
(0.0972243712 -0.00108931894 0)
(0.097122829 -0.001117892 0)
(0.0974003671 -0.0011159554 0)
(0.0973003727 -0.00114912409 0)
(0.0975791147 -0.00113539042 0)
(0.0974814163 -0.00117280988 0)
(0.0977593246 -0.00114755143 0)
(0.0976646097 -0.00118880688 0)
(0.0979397132 -0.0011524883 0)
(0.0978485956 -0.00119710727 0)
(0.0981190279 -0.00115036955 0)
(0.0980320374 -0.00119783562 0)
(0.0982960711 -0.00114147456 0)
(0.0982136468 -0.00119124194 0)
(0.0984697223 -0.00112618212 0)
(0.0983922086 -0.0011776905 0)
(0.0986389556 -0.00110495632 0)
(0.0985666025 -0.00115764537 0)
(0.0988028542 -0.0010783305 0)
(0.0987358198 -0.00113165324 0)
(0.09896062 -0.00104689016 0)
(0.0988989761 -0.00110032483 0)
(0.0991115796 -0.00101125559 0)
(0.0990553193 -0.00106431557 0)
(0.0992551863 -0.000972065016 0)
(0.0992042329 -0.00102430656 0)
(0.0993910178 -0.000929958867 0)
(0.0993452354 -0.000980986666 0)
(0.0995187722 -0.000885565623 0)
(0.0994779756 -0.000935036214 0)
(0.0996382607 -0.000839489573 0)
(0.0996022259 -0.000887112786 0)
(0.0997493983 -0.000792300762 0)
(0.0997178723 -0.000837839451 0)
(0.0998521942 -0.000744526949 0)
(0.0998249037 -0.000787795435 0)
(0.0999467404 -0.000696647619 0)
(0.0999233998 -0.000737509009 0)
(0.1000332 -0.000649090213 0)
(0.100013518 -0.000687452644 0)
(0.100111797 -0.000602228219 0)
(0.100095484 -0.000638040448 0)
(0.100182804 -0.00055638078 0)
(0.100169574 -0.000589627657 0)
(0.100246534 -0.000511813545 0)
(0.100236112 -0.000542511825 0)
(0.100303329 -0.000468740429 0)
(0.100295452 -0.000496935422 0)
(0.100353559 -0.000427324879 0)
(0.100347974 -0.000453088828 0)
(0.100397607 -0.000387681392 0)
(0.100394074 -0.000411112321 0)
(0.100435868 -0.000349880489 0)
(0.100434159 -0.000371098884 0)
(0.10046874 -0.000313957249 0)
(0.100468642 -0.000333102518 0)
(0.100496622 -0.000279920051 0)
(0.100497934 -0.000297151938 0)
(0.100519917 -0.000247758491 0)
(0.100522444 -0.000263247622 0)
(0.100539016 -0.000217448199 0)
(0.100542572 -0.00023136041 0)
(0.100554289 -0.000188950915 0)
(0.100558706 -0.000201437613 0)
(0.100566091 -0.000162216615 0)
(0.100571218 -0.000173420723 0)
(0.10057477 -0.000137194117 0)
(0.100580464 -0.000147253402 0)
(0.10058066 -0.000113840333 0)
(0.10058678 -0.000122877186 0)
(0.100584076 -9.21167442e-05 0)
(0.100590489 -0.000100226414 0)
(0.1005853 -7.19852165e-05 0)
(0.100591904 -7.92321756e-05 0)
(0.10058458 -5.34142844e-05 0)
(0.10059131 -5.9827197e-05 0)
(0.100582117 -3.63786348e-05 0)
(0.100588966 -4.19550316e-05 0)
(0.10057808 -2.08391375e-05 0)
(0.100585106 -2.55845528e-05 0)
(0.100572615 -6.72158498e-06 0)
(0.10057994 -1.06948372e-05 0)
(0.100565896 6.00212411e-06 0)
(0.100573546 2.67554686e-06 0)
(0.100558184 1.7385955e-05 0)
(0.100566004 1.45510508e-05 0)
(0.100549594 2.75415112e-05 0)
(0.100557487 2.51947569e-05 0)
(0.100540206 3.65439876e-05 0)
(0.100548109 3.46750908e-05 0)
(0.100530083 4.44769668e-05 0)
(0.100537961 4.30719134e-05 0)
(0.100519308 5.14378936e-05 0)
(0.100527146 5.04640239e-05 0)
(0.10050797 5.75253153e-05 0)
(0.100515751 5.69418927e-05 0)
(0.100496158 6.28274621e-05 0)
(0.100503862 6.25946861e-05 0)
(0.100483955 6.74208635e-05 0)
(0.100491564 6.75013245e-05 0)
(0.100471439 7.13737449e-05 0)
(0.10047894 7.17325954e-05 0)
(0.100458683 7.4747565e-05 0)
(0.100466062 7.5353121e-05 0)
(0.100445751 7.75974449e-05 0)
(0.100452999 7.84212805e-05 0)
(0.100432704 7.99727518e-05 0)
(0.100439812 8.09893519e-05 0)
(0.100419593 8.19177002e-05 0)
(0.100426557 8.31040198e-05 0)
(0.100406468 8.3471914e-05 0)
(0.100413281 8.48069571e-05 0)
(0.100393369 8.46709895e-05 0)
(0.10040003 8.61354797e-05 0)
(0.100380334 8.55470354e-05 0)
(0.10038684 8.71232092e-05 0)
(0.100367395 8.61291784e-05 0)
(0.100373745 8.78006762e-05 0)
(0.100354579 8.64440087e-05 0)
(0.100360772 8.81958407e-05 0)
(0.100341911 8.65159422e-05 0)
(0.100347947 8.83344986e-05 0)
(0.100329411 8.63674944e-05 0)
(0.100335289 8.82405612e-05 0)
(0.100317098 8.60194852e-05 0)
(0.100322818 8.79362308e-05 0)
(0.100304986 8.54911871e-05 0)
(0.100310547 8.74421131e-05 0)
(0.100293089 8.4800427e-05 0)
(0.100298491 8.67772852e-05 0)
(0.100281418 8.39636499e-05 0)
(0.100286662 8.59593355e-05 0)
(0.100269983 8.29959596e-05 0)
(0.100275069 8.50043891e-05 0)
(0.100258793 8.19111518e-05 0)
(0.100263721 8.39271327e-05 0)
(0.100247854 8.07217471e-05 0)
(0.100252625 8.27408485e-05 0)
(0.100237173 7.94390342e-05 0)
(0.100241788 8.14574625e-05 0)
(0.100226755 7.80731294e-05 0)
(0.100231214 8.00876127e-05 0)
(0.100216603 7.66330501e-05 0)
(0.10022091 7.86407365e-05 0)
(0.100206722 7.51268019e-05 0)
(0.100210876 7.71251736e-05 0)
(0.100197114 7.35614759e-05 0)
(0.100201118 7.55482819e-05 0)
(0.100187781 7.19433443e-05 0)
(0.100191635 7.39165542e-05 0)
(0.100178723 7.02779494e-05 0)
(0.100182429 7.22357275e-05 0)
(0.100169942 6.85701788e-05 0)
(0.100173502 7.05108769e-05 0)
(0.100161438 6.68243148e-05 0)
(0.100164852 6.87464834e-05 0)
(0.100153211 6.50440552e-05 0)
(0.100156481 6.69464697e-05 0)
(0.100145261 6.32324869e-05 0)
(0.100148388 6.51142019e-05 0)
(0.100137589 6.13920462e-05 0)
(0.100140571 6.32524322e-05 0)
(0.100130195 5.95242472e-05 0)
(0.100133033 6.13632876e-05 0)
(0.100123079 5.76300775e-05 0)
(0.100125769 5.94477566e-05 0)
(0.100116242 5.57066497e-05 0)
(0.100118791 5.75072447e-05 0)
(0.100109684 5.37602002e-05 0)
(0.100112062 5.55352703e-05 0)
(0.100103401 5.17435896e-05 0)
(0.100105708 5.35545211e-05 0)
(0.100097398 4.98285793e-05 0)
(0.1000993 5.14517656e-05 0)
(0.100091579 4.72163562e-05 0)
(0.10009441 4.97162994e-05 0)
(0.100086002 4.62744482e-05 0)
(0.100008399 -6.21736765e-05 0)
(0.100002038 -4.01781258e-05 0)
(0.100029843 -0.000103229282 0)
(0.100016836 -0.00010265098 0)
(0.100059071 -0.000116056459 0)
(0.100043696 -0.000135328065 0)
(0.10009006 -9.89722431e-05 0)
(0.100077091 -0.000133331975 0)
(0.10011703 -5.46722779e-05 0)
(0.100109458 -9.74105909e-05 0)
(0.100135158 1.01993539e-05 0)
(0.100134328 -3.30474876e-05 0)
(0.100139961 8.66515608e-05 0)
(0.100147132 5.16697451e-05 0)
(0.100129866 0.000165103536 0)
(0.100145122 0.000143929141 0)
(0.100105183 0.000236598257 0)
(0.100127353 0.000232681839 0)
(0.100067841 0.000294183035 0)
(0.100094933 0.000308684204 0)
(0.100020801 0.000333397095 0)
(0.100050548 0.000365465313 0)
(0.0999676031 0.000352219408 0)
(0.0999977445 0.000399368588 0)
(0.0999119694 0.0003507798 0)
(0.0999404388 0.000409420872 0)
(0.099857489 0.000330780635 0)
(0.0998825559 0.000396842442 0)
(0.0998074171 0.00029485576 0)
(0.0998277671 0.000364230069 0)
(0.0997645645 0.000246339398 0)
(0.0997793341 0.000314927295 0)
(0.0997311656 0.000189652794 0)
(0.0997399966 0.000253134169 0)
(0.099708616 0.000130911634 0)
(0.0997117681 0.000184679852 0)
(0.0996970948 7.7994568e-05 0)
(0.099695563 0.000117647144 0)
(0.0996952281 3.95521859e-05 0)
(0.0996907505 6.19340829e-05 0)
(0.0996999629 2.30910831e-05 0)
(0.0996948482 2.75154225e-05 0)
(0.0997066102 3.30062032e-05 0)
(0.0997036784 2.214243e-05 0)
(0.0997097368 6.94577258e-05 0)
(0.0997120281 4.88150914e-05 0)
(0.0997044694 0.00012821307 0)
(0.0997143742 0.000104701899 0)
(0.0996870774 0.000201552047 0)
(0.099705814 0.000182404853 0)
(0.099655484 0.000280024065 0)
(0.0996830104 0.000271540104 0)
(0.0996094094 0.000354285662 0)
(0.0996445946 0.000360897573 0)
(0.0995502046 0.000416532851 0)
(0.0995911423 0.000440398348 0)
(0.0994804759 0.000461306732 0)
(0.0995248515 0.000502391524 0)
(0.0994036093 0.000485697328 0)
(0.0994490413 0.000542179063 0)
(0.0993233114 0.000489126427 0)
(0.0993676154 0.000557916597 0)
(0.0992432371 0.000472945539 0)
(0.0992846041 0.000550166673 0)
(0.0991667168 0.000440063641 0)
(0.0992038239 0.00052139505 0)
(0.0990965514 0.000394725514 0)
(0.0991286312 0.000475623266 0)
(0.099034821 0.000342419957 0)
(0.099061714 0.000418299299 0)
(0.0989826687 0.00028976628 0)
(0.0990048658 0.000356269495 0)
(0.09894007 0.000244162963 0)
(0.0989587236 0.000297607506 0)
(0.0989056376 0.00021302914 0)
(0.0989225232 0.000251041836 0)
(0.0988765721 0.000202653836 0)
(0.0988939841 0.000224836762 0)
(0.0988489063 0.000216885642 0)
(0.0988694303 0.000225249975 0)
(0.0988180918 0.000256038761 0)
(0.0988442102 0.000254974667 0)
(0.0987797897 0.000316437766 0)
(0.0988134036 0.000312117252 0)
(0.0987306353 0.000390897844 0)
(0.0987726805 0.000390187043 0)
(0.098668812 0.000470142831 0)
(0.0987190919 0.000479262334 0)
(0.0985943114 0.000544830483 0)
(0.0986515881 0.000568116391 0)
(0.0985087944 0.000607606384 0)
(0.0985711094 0.000646732519 0)
(0.0984150808 0.00065455273 0)
(0.0984802106 0.000708448558 0)
(0.0983164145 0.000685592725 0)
(0.0983823297 0.000751070342 0)
(0.098215725 0.000703789045 0)
(0.098280932 0.000776650928 0)
(0.0981151003 0.000713873331 0)
(0.0981787874 0.000790112999 0)
(0.0980155925 0.000720589077 0)
(0.0980775707 0.000797296055 0)
(0.09791735 0.000727422255 0)
(0.0979778484 0.000803157207 0)
(0.0978199588 0.000736056339 0)
(0.0978793699 0.00081069176 0)
(0.0977228286 0.000746552345 0)
(0.0977814959 0.000820769609 0)
(0.097625487 0.000757983098 0)
(0.0976835877 0.00083269722 0)
(0.0975277153 0.000769152072 0)
(0.097585242 0.000845087252 0)
(0.0974295399 0.000779106676 0)
(0.0974863486 0.000856618777 0)
(0.097331142 0.000787333401 0)
(0.0973870208 0.000866446621 0)
(0.0972327544 0.000793690352 0)
(0.0972874782 0.000874242591 0)
(0.0971345927 0.000798218495 0)
(0.0971879491 0.00088000804 0)
(0.097036832 0.000800965089 0)
(0.0970886227 0.000883836507 0)
(0.0969396182 0.000801889253 0)
(0.0969896479 0.000885750356 0)
(0.0968430914 0.000800851543 0)
(0.0968911561 0.000885647488 0)
(0.0967474072 0.000797650892 0)
(0.0967932872 0.000883327988 0)
(0.096652748 0.000792068899 0)
(0.0966962067 0.000878548538 0)
(0.0965593244 0.00078389836 0)
(0.096600111 0.000871066237 0)
(0.0964673729 0.000772952199 0)
(0.0965052264 0.000860658753 0)
(0.0963771541 0.000759060728 0)
(0.0964118056 0.000847125365 0)
(0.0962889517 0.000742066815 0)
(0.0963201267 0.000830280805 0)
(0.0962030733 0.000721824098 0)
(0.0962304935 0.000809950973 0)
(0.0961198518 0.000698198666 0)
(0.0961432366 0.000785973289 0)
(0.0960396456 0.000671072518 0)
(0.0960587144 0.000758200166 0)
(0.0959628391 0.000640347096 0)
(0.0959773132 0.000726503119 0)
(0.0958898423 0.000605946069 0)
(0.0958994471 0.000690775945 0)
(0.0958210914 0.000567817067 0)
(0.0958255577 0.000650936541 0)
(0.0957570481 0.000525932468 0)
(0.0957561132 0.00060692756 0)
(0.0956982 0.000480289193 0)
(0.0956916078 0.000558716307 0)
(0.0956450594 0.000430907189 0)
(0.0956325602 0.000506294067 0)
(0.0955981596 0.000377826902 0)
(0.0955795105 0.000449675 0)
(0.0955580501 0.000321107242 0)
(0.0955330154 0.00038889507 0)
(0.0955252885 0.0002608386 0)
(0.0954936406 0.000324010225 0)