/*--------------------------------*- C++ -*----------------------------------*\
| =========                 |                                                 |
| \\      /  F ield         | OpenFOAM: The Open Source CFD Toolbox           |
|  \\    /   O peration     | Version:  v2012                                 |
|   \\  /    A nd           | Website:  www.openfoam.com                      |
|    \\/     M anipulation  |                                                 |
\*---------------------------------------------------------------------------*/
FoamFile
{
    version     2.0;
    format      ascii;
    class       volVectorField;
    location    "2.59";
    object      H;
}
// * * * * * * * * * * * * * * * * * * * * * * * * * * * * * * * * * * * * * //

dimensions      [0 1 -2 0 0 0 0];


internalField   nonuniform List<vector> 
28416
(
(218.472121 -0.00740139513 0)
(218.479427 0.000815407581 0)
(218.489055 0.0368134065 0)
(218.485795 0.0969530035 0)
(218.45819 0.173570497 0)
(218.400869 0.257546687 0)
(218.31326 0.339868999 0)
(218.197837 0.412166631 0)
(218.059544 0.467355287 0)
(217.905157 0.5005568 0)
(217.7423 0.509771097 0)
(217.578525 0.495787835 0)
(217.420769 0.461303804 0)
(217.275146 0.409913512 0)
(217.146884 0.34585782 0)
(217.040075 0.274719126 0)
(216.957041 0.204227171 0)
(216.89743 0.144085071 0)
(216.857609 0.104291227 0)
(216.830571 0.0925159967 0)
(216.806602 0.112040531 0)
(216.775222 0.161071636 0)
(216.727731 0.233097596 0)
(216.658689 0.318223923 0)
(216.566115 0.405291148 0)
(216.451305 0.483882749 0)
(216.318395 0.54558301 0)
(216.173419 0.584559459 0)
(216.023177 0.597750942 0)
(215.874427 0.584798408 0)
(215.73345 0.547811524 0)
(215.605767 0.491083244 0)
(215.495864 0.420849133 0)
(215.406965 0.345038153 0)
(215.340565 0.272813573 0)
(215.295861 0.213899824 0)
(215.269487 0.17738992 0)
(215.255525 0.17028339 0)
(215.246197 0.196161326 0)
(215.233307 0.254020899 0)
(215.209691 0.337908707 0)
(215.170379 0.437897213 0)
(215.113325 0.542167526 0)
(215.039506 0.639585973 0)
(214.952313 0.722055256 0)
(214.856445 0.785923116 0)
(214.756632 0.832049626 0)
(214.656573 0.864628405 0)
(214.558354 0.889291683 0)
(214.462438 0.911225527 0)
(214.368086 0.933908556 0)
(214.273993 0.958742622 0)
(214.178845 0.985451251 0)
(214.081673 1.01286462 0)
(213.981941 1.03967486 0)
(213.879449 1.06489427 0)
(213.774177 1.08796442 0)
(213.666146 1.10862737 0)
(213.555361 1.12672427 0)
(213.441811 1.14204596 0)
(213.325506 1.15427975 0)
(213.206516 1.16303186 0)
(213.084997 1.16787959 0)
(212.961196 1.16841681 0)
(212.835455 1.16427663 0)
(212.708199 1.15513339 0)
(212.579941 1.14070126 0)
(212.451277 1.12073389 0)
(212.322882 1.09502618 0)
(212.195511 1.06341815 0)
(212.069994 1.02579987 0)
(211.94723 0.982116194 0)
(211.828183 0.932370956 0)
(211.713885 0.876629606 0)
(211.605427 0.815019576 0)
(211.503965 0.747726479 0)
(211.410717 0.674986007 0)
(211.326963 0.597069758 0)
(211.254022 0.514264906 0)
(211.193231 0.426859349 0)
(211.145875 0.335132017 0)
(211.113155 0.239356131 0)
(211.095979 0.13984539 0)
(211.094096 0.0372461215 0)
(211.110665 -0.0661800265 0)
(211.148369 -0.170700865 0)
(211.207433 -0.277012091 0)
(211.287536 -0.384696721 0)
(211.388968 -0.493073447 0)
(211.511996 -0.601456549 0)
(211.656567 -0.70906273 0)
(211.822432 -0.815030932 0)
(212.009159 -0.918462007 0)
(212.216077 -1.01842271 0)
(212.44227 -1.1139507 0)
(212.686596 -1.20407343 0)
(212.947698 -1.28783562 0)
(213.224019 -1.36433222 0)
(213.51383 -1.43274285 0)
(213.815246 -1.49236284 0)
(214.126253 -1.54262713 0)
(214.444735 -1.58312563 0)
(214.768511 -1.61361048 0)
(215.095365 -1.63399709 0)
(215.423087 -1.64436035 0)
(215.749516 -1.64492721 0)
(216.072571 -1.63606608 0)
(216.390291 -1.61827317 0)
(216.700858 -1.5921559 0)
(217.002623 -1.55841395 0)
(217.294122 -1.51781854 0)
(217.574088 -1.47119104 0)
(217.841456 -1.4193817 0)
(218.095361 -1.36324945 0)
(218.335136 -1.30364347 0)
(218.560303 -1.24138679 0)
(218.770562 -1.17726249 0)
(218.965772 -1.11200257 0)
(219.145933 -1.04627669 0)
(219.311172 -0.98068204 0)
(219.461733 -0.915738758 0)
(219.597965 -0.851891342 0)
(219.720301 -0.789511951 0)
(219.82924 -0.728904824 0)
(219.925314 -0.670303794 0)
(220.009082 -0.613843726 0)
(220.081197 -0.559556011 0)
(220.142463 -0.507439013 0)
(220.193747 -0.457529717 0)
(220.235859 -0.409883133 0)
(220.269531 -0.364505805 0)
(220.295457 -0.3213533 0)
(220.314328 -0.280365399 0)
(220.326838 -0.241481142 0)
(220.33367 -0.204640743 0)
(220.335492 -0.169783987 0)
(220.332972 -0.136859886 0)
(220.326782 -0.105861714 0)
(220.317587 -0.0768752781 0)
(220.305972 -0.0501024231 0)
(220.292418 -0.0259252165 0)
(220.277144 -0.00480272998 0)
(220.25963 0.0133718913 0)
(220.239149 0.0292672735 0)
(220.216082 0.0433517536 0)
(220.191045 0.0558210561 0)
(220.164356 0.0668295022 0)
(220.136236 0.0765355399 0)
(220.106913 0.0850806211 0)
(220.076615 0.092586595 0)
(220.045553 0.0991596454 0)
(220.013917 0.104892448 0)
(219.981879 0.109865559 0)
(219.949592 0.114147847 0)
(219.917196 0.117796927 0)
(219.884813 0.12086092 0)
(219.852547 0.123381108 0)
(219.820488 0.125394463 0)
(219.788711 0.126935612 0)
(219.757281 0.128038137 0)
(219.726251 0.128735185 0)
(219.695667 0.129059526 0)
(219.665571 0.129043316 0)
(219.635997 0.128717747 0)
(219.606978 0.128112646 0)
(219.578542 0.127256077 0)
(219.550714 0.126173984 0)
(219.523517 0.124889917 0)
(219.496972 0.123424867 0)
(219.471095 0.121797245 0)
(219.445902 0.120022986 0)
(219.421406 0.118115791 0)
(219.397616 0.116087467 0)
(219.374539 0.113948319 0)
(219.352182 0.111707544 0)
(219.330547 0.109373589 0)
(219.309636 0.106954417 0)
(219.28945 0.104457681 0)
(219.26999 0.101890796 0)
(219.251256 0.0992608982 0)
(219.233248 0.0965747349 0)
(219.215966 0.0938384557 0)
(219.199415 0.0910574345 0)
(219.183591 0.088235518 0)
(219.16852 0.0853763517 0)
(219.154144 0.0824734026 0)
(219.140712 0.0795504126 0)
(219.127448 0.0764569038 0)
(219.117348 0.0737910059 0)
(219.097985 0.0685757806 0)
(218.474628 -0.0204830818 0)
(218.486075 -0.0189966528 0)
(218.504266 0.0345148654 0)
(218.51226 0.135456724 0)
(218.494986 0.269079935 0)
(218.443967 0.416989844 0)
(218.357427 0.561488223 0)
(218.237905 0.687525258 0)
(218.090987 0.783547932 0)
(217.924513 0.842143808 0)
(217.747463 0.860520009 0)
(217.56884 0.840139334 0)
(217.39697 0.78526527 0)
(217.239249 0.701392544 0)
(217.102088 0.594979631 0)
(216.990612 0.474767772 0)
(216.907881 0.353307055 0)
(216.853775 0.246787608 0)
(216.824103 0.172376553 0)
(216.81075 0.143891994 0)
(216.802852 0.167806765 0)
(216.788409 0.241387052 0)
(216.756317 0.353448691 0)
(216.698485 0.487094519 0)
(216.611106 0.623458423 0)
(216.494794 0.745235425 0)
(216.35401 0.838989353 0)
(216.195985 0.896074749 0)
(216.029397 0.912568206 0)
(215.863207 0.888651158 0)
(215.705892 0.827848982 0)
(215.564958 0.736460615 0)
(215.446579 0.623334259 0)
(215.355198 0.49982626 0)
(215.293003 0.37949623 0)
(215.259253 0.277294582 0)
(215.249884 0.207831984 0)
(215.257708 0.182848132 0)
(215.273028 0.208514952 0)
(215.284838 0.283375137 0)
(215.282811 0.397963597 0)
(215.259338 0.536501186 0)
(215.210867 0.680315368 0)
(215.138298 0.812055127 0)
(215.046334 0.919442949 0)
(214.941928 0.99742472 0)
(214.832339 1.04813402 0)
(214.723389 1.07887487 0)
(214.618435 1.09900864 0)
(214.518238 1.11692269 0)
(214.421591 1.13805789 0)
(214.326319 1.1644056 0)
(214.230227 1.195247 0)
(214.131694 1.22849452 0)
(214.02984 1.26194714 0)
(213.924369 1.29402645 0)
(213.815293 1.32392158 0)
(213.702692 1.35134128 0)
(213.586597 1.3761558 0)
(213.466986 1.39813675 0)
(213.343846 1.41686564 0)
(213.21723 1.43177187 0)
(213.0873 1.44222034 0)
(212.954339 1.44758562 0)
(212.818734 1.44729069 0)
(212.680974 1.44081902 0)
(212.541643 1.4277087 0)
(212.401423 1.40754703 0)
(212.261081 1.37997245 0)
(212.121471 1.34468062 0)
(211.98353 1.30143098 0)
(211.84827 1.25005134 0)
(211.716771 1.19043955 0)
(211.590178 1.12256267 0)
(211.469692 1.04645385 0)
(211.35656 0.962207319 0)
(211.252074 0.869971771 0)
(211.157547 0.76994224 0)
(211.07431 0.662352257 0)
(211.003685 0.547471107 0)
(210.946941 0.425619172 0)
(210.905329 0.297234718 0)
(210.88028 0.162908545 0)
(210.874061 0.0233743218 0)
(210.888998 -0.120354297 0)
(210.924074 -0.267267137 0)
(210.980455 -0.417007908 0)
(211.059196 -0.568828446 0)
(211.160757 -0.721746015 0)
(211.285466 -0.874725674 0)
(211.433455 -1.02660708 0)
(211.604599 -1.17610629 0)
(211.798524 -1.32186202 0)
(212.014592 -1.46246379 0)
(212.251882 -1.59648034 0)
(212.509206 -1.72249613 0)
(212.78511 -1.83914926 0)
(213.077892 -1.94516908 0)
(213.385625 -2.03941274 0)
(213.706181 -2.12089892 0)
(214.037265 -2.18883703 0)
(214.376457 -2.24265028 0)
(214.72125 -2.28199166 0)
(215.069103 -2.30675186 0)
(215.417486 -2.31705882 0)
(215.763937 -2.31326913 0)
(216.106097 -2.29595192 0)
(216.441761 -2.26586654 0)
(216.768903 -2.22393528 0)
(217.085711 -2.17121274 0)
(217.390596 -2.1088534 0)
(217.682214 -2.0380788 0)
(217.959461 -1.96014567 0)
(218.221473 -1.87631603 0)
(218.467622 -1.78783029 0)
(218.697495 -1.69588374 0)
(218.910882 -1.60160695 0)
(219.107761 -1.50605052 0)
(219.288269 -1.41017152 0)
(219.452684 -1.31482283 0)
(219.601409 -1.22074853 0)
(219.734944 -1.12858329 0)
(219.853868 -1.03885272 0)
(219.958825 -0.951975891 0)
(220.050528 -0.868266297 0)
(220.129758 -0.787921127 0)
(220.197315 -0.711028095 0)
(220.253991 -0.637619885 0)
(220.300579 -0.567730729 0)
(220.337921 -0.501391896 0)
(220.366858 -0.438626422 0)
(220.388159 -0.379424901 0)
(220.402531 -0.323725805 0)
(220.410665 -0.271438095 0)
(220.413245 -0.222472236 0)
(220.410928 -0.176782402 0)
(220.404321 -0.134329072 0)
(220.393939 -0.095061982 0)
(220.380204 -0.058951696 0)
(220.363358 -0.0259495586 0)
(220.343676 0.0041798245 0)
(220.321933 0.0311953598 0)
(220.29862 0.0548332816 0)
(220.273577 0.0755367011 0)
(220.246703 0.0938167506 0)
(220.218253 0.109919481 0)
(220.188503 0.124024411 0)
(220.157657 0.136324852 0)
(220.125903 0.14700287 0)
(220.093429 0.156218136 0)
(220.060412 0.164111323 0)
(220.027012 0.170807744 0)
(219.993376 0.176420259 0)
(219.959633 0.181050637 0)
(219.9259 0.184789839 0)
(219.892284 0.187718924 0)
(219.858876 0.189910525 0)
(219.825757 0.191430113 0)
(219.792997 0.192337023 0)
(219.760657 0.192685426 0)
(219.72879 0.192525191 0)
(219.69744 0.191902497 0)
(219.666646 0.190860269 0)
(219.636441 0.189438462 0)
(219.606853 0.187674234 0)
(219.577906 0.185602025 0)
(219.549621 0.183253585 0)
(219.522014 0.180657987 0)
(219.495103 0.177841665 0)
(219.468899 0.17482848 0)
(219.443412 0.171639834 0)
(219.418651 0.168294827 0)
(219.394623 0.164810449 0)
(219.37133 0.161201802 0)
(219.348778 0.157482317 0)
(219.326968 0.153663966 0)
(219.305899 0.149757442 0)
(219.285573 0.145772293 0)
(219.265988 0.141717006 0)
(219.247144 0.137599027 0)
(219.229038 0.133424713 0)
(219.211671 0.129199178 0)
(219.195043 0.124926176 0)
(219.179148 0.120607109 0)
(219.164008 0.116243254 0)
(219.149553 0.111821041 0)
(219.136027 0.107375295 0)
(219.122577 0.102683553 0)
(219.112305 0.0986659646 0)
(219.092039 0.0910035149 0)
(218.474483 -0.0299887083 0)
(218.484338 -0.039290723 0)
(218.499573 0.0118212475 0)
(218.504137 0.119251552 0)
(218.483936 0.268126908 0)
(218.431747 0.436447372 0)
(218.345707 0.602238836 0)
(218.227923 0.74735458 0)
(218.083479 0.85847984 0)
(217.919671 0.927266074 0)
(217.745015 0.950499854 0)
(217.568192 0.929672367 0)
(217.397332 0.869393294 0)
(217.239703 0.775623431 0)
(217.101618 0.65538249 0)
(216.988178 0.518303318 0)
(216.902559 0.378470559 0)
(216.844975 0.254314856 0)
(216.811803 0.165612616 0)
(216.795295 0.128600554 0)
(216.784378 0.151359994 0)
(216.766867 0.231510236 0)
(216.732112 0.35688154 0)
(216.672743 0.508536635 0)
(216.585374 0.664926685 0)
(216.470621 0.805879329 0)
(216.33258 0.915428075 0)
(216.177908 0.983130583 0)
(216.0147 1.00412633 0)
(215.851475 0.978431848 0)
(215.696425 0.909987821 0)
(215.556899 0.805897352 0)
(215.438991 0.676080363 0)
(215.34712 0.533227579 0)
(215.28354 0.392593348 0)
(215.247793 0.271102046 0)
(215.236305 0.185448583 0)
(215.242274 0.149214923 0)
(215.256242 0.169825934 0)
(215.267631 0.246431815 0)
(215.266656 0.369192215 0)
(215.245976 0.520645056 0)
(215.201882 0.679332769 0)
(215.134742 0.824726929 0)
(215.048518 0.941877728 0)
(214.949447 1.02429564 0)
(214.84428 1.07421061 0)
(214.738639 1.10032215 0)
(214.635963 1.11405495 0)
(214.537282 1.12578264 0)
(214.441705 1.14229327 0)
(214.34731 1.16607816 0)
(214.25203 1.19620942 0)
(214.154241 1.2300184 0)
(214.052978 1.26469819 0)
(213.947826 1.29825951 0)
(213.838692 1.32972845 0)
(213.725578 1.35882914 0)
(213.608472 1.38551435 0)
(213.487329 1.40961798 0)
(213.36212 1.43072707 0)
(213.232892 1.4482257 0)
(213.0998 1.46140699 0)
(212.963129 1.46956928 0)
(212.82329 1.47206542 0)
(212.680812 1.46831544 0)
(212.536321 1.45779643 0)
(212.390546 1.44003329 0)
(212.244304 1.4145988 0)
(212.098504 1.38111988 0)
(211.954137 1.3392854 0)
(211.812272 1.28885233 0)
(211.67404 1.22964946 0)
(211.54064 1.16157919 0)
(211.413321 1.08461773 0)
(211.293382 0.998814606 0)
(211.182168 0.904291246 0)
(211.081059 0.801239941 0)
(210.991465 0.689925199 0)
(210.914826 0.570684091 0)
(210.852628 0.443940294 0)
(210.806375 0.310229832 0)
(210.77723 0.170089424 0)
(210.765241 0.0240537232 0)
(210.773973 -0.12741517 0)
(210.804759 -0.283516862 0)
(210.857995 -0.443390059 0)
(210.934209 -0.606175831 0)
(211.034108 -0.770812719 0)
(211.158209 -0.936082909 0)
(211.306749 -1.10064871 0)
(211.479705 -1.2630571 0)
(211.676788 -1.42176279 0)
(211.897414 -1.57515544 0)
(212.140692 -1.72158895 0)
(212.405422 -1.85941918 0)
(212.690099 -1.9870486 0)
(212.99292 -2.10297485 0)
(213.311817 -2.20583978 0)
(213.644479 -2.2944752 0)
(213.988396 -2.36794169 0)
(214.340908 -2.425558 0)
(214.699259 -2.46691977 0)
(215.060655 -2.4919074 0)
(215.422323 -2.5006834 0)
(215.781569 -2.49368027 0)
(216.135827 -2.47157957 0)
(216.482713 -2.43528394 0)
(216.820055 -2.38588321 0)
(217.145927 -2.32461663 0)
(217.458666 -2.25283293 0)
(217.756887 -2.17195045 0)
(218.039479 -2.08341859 0)
(218.305601 -1.98868236 0)
(218.554674 -1.88915091 0)
(218.786357 -1.78617083 0)
(219.000526 -1.68100435 0)
(219.197257 -1.57481281 0)
(219.376791 -1.46864484 0)
(219.539514 -1.36342885 0)
(219.685935 -1.25997005 0)
(219.816666 -1.15895025 0)
(219.932402 -1.06092969 0)
(220.033893 -0.966350952 0)
(220.121938 -0.875547316 0)
(220.197361 -0.788763841 0)
(220.261011 -0.706174872 0)
(220.313757 -0.627882551 0)
(220.356469 -0.55391726 0)
(220.38997 -0.484261285 0)
(220.415042 -0.418888025 0)
(220.432476 -0.357750901 0)
(220.443058 -0.30075925 0)
(220.447513 -0.24778948 0)
(220.446471 -0.198696154 0)
(220.440541 -0.15328965 0)
(220.430397 -0.111396707 0)
(220.416697 -0.0728390876 0)
(220.400103 -0.0374405737 0)
(220.38148 -0.00532482292 0)
(220.361208 0.023648149 0)
(220.338618 0.049919937 0)
(220.313735 0.0734986077 0)
(220.286941 0.094373267 0)
(220.258449 0.112787437 0)
(220.228491 0.128986472 0)
(220.197323 0.143157022 0)
(220.165166 0.155476244 0)
(220.132209 0.166117632 0)
(220.098631 0.175241864 0)
(220.064602 0.182994645 0)
(220.03028 0.189506992 0)
(219.995808 0.194896183 0)
(219.961315 0.199267002 0)
(219.926916 0.202712742 0)
(219.892711 0.205316592 0)
(219.858787 0.207153466 0)
(219.825217 0.208291641 0)
(219.792062 0.208793945 0)
(219.759377 0.20871863 0)
(219.727206 0.20811997 0)
(219.695586 0.207048567 0)
(219.664552 0.205551486 0)
(219.634132 0.203672317 0)
(219.604351 0.201451219 0)
(219.575231 0.198924952 0)
(219.546792 0.196126922 0)
(219.519049 0.193087254 0)
(219.492017 0.189832918 0)
(219.465708 0.186387897 0)
(219.440131 0.182773403 0)
(219.415292 0.179008145 0)
(219.391198 0.175108615 0)
(219.367851 0.171089386 0)
(219.345254 0.166963402 0)
(219.323406 0.162742228 0)
(219.302306 0.158436238 0)
(219.281954 0.154054744 0)
(219.262346 0.149606057 0)
(219.243481 0.145097463 0)
(219.225354 0.140535158 0)
(219.207966 0.135924077 0)
(219.191314 0.131267832 0)
(219.17539 0.126567761 0)
(219.160215 0.121825852 0)
(219.145718 0.117028835 0)
(219.132141 0.112220815 0)
(219.118659 0.107166417 0)
(219.108358 0.102886778 0)
(219.088438 0.0947883404 0)
(218.475098 -0.0402307811 0)
(218.487862 -0.0552035532 0)
(218.506307 0.00791113793 0)
(218.515213 0.145330208 0)
(218.499726 0.337199125 0)
(218.450324 0.554950561 0)
(218.364545 0.769944991 0)
(218.244427 0.958534184 0)
(218.095211 1.10347767 0)
(217.924632 1.19401123 0)
(217.741892 1.22592341 0)
(217.556527 1.20097621 0)
(217.37759 1.12492888 0)
(217.21325 1.00530985 0)
(217.07059 0.85102431 0)
(216.955224 0.674320166 0)
(216.870492 0.493144727 0)
(216.816327 0.331113936 0)
(216.788432 0.2137504 0)
(216.778439 0.162185484 0)
(216.775111 0.18718819 0)
(216.765963 0.286033009 0)
(216.739167 0.44324125 0)
(216.685722 0.63453104 0)
(216.601001 0.83226848 0)
(216.485134 1.01064077 0)
(216.342444 1.14929783 0)
(216.18033 1.23502179 0)
(216.007958 1.26171609 0)
(215.835073 1.22938954 0)
(215.671115 1.1428694 0)
(215.524606 1.01083379 0)
(215.402651 0.845437435 0)
(215.31041 0.662355953 0)
(215.250455 0.480675934 0)
(215.222072 0.321887739 0)
(215.220844 0.207563358 0)
(215.238955 0.155772432 0)
(215.26624 0.176740721 0)
(215.291329 0.269577028 0)
(215.303142 0.421387366 0)
(215.292961 0.609516292 0)
(215.256209 0.806470436 0)
(215.19312 0.986187447 0)
(215.108158 1.12981611 0)
(215.008424 1.2292548 0)
(214.901613 1.287431 0)
(214.794141 1.3154525 0)
(214.689963 1.32788468 0)
(214.590308 1.33798015 0)
(214.494226 1.35445917 0)
(214.399572 1.38058434 0)
(214.303997 1.41524892 0)
(214.20562 1.45509491 0)
(214.103277 1.49655165 0)
(213.99642 1.53706598 0)
(213.88487 1.57537236 0)
(213.768571 1.61110364 0)
(213.647466 1.64419954 0)
(213.521472 1.67446249 0)
(213.390534 1.70138856 0)
(213.254681 1.72421738 0)
(213.114073 1.74207124 0)
(212.969011 1.75407721 0)
(212.819934 1.75942815 0)
(212.667411 1.7573898 0)
(212.512122 1.74729131 0)
(212.35486 1.72851809 0)
(212.196519 1.70051335 0)
(212.038091 1.66278644 0)
(211.880661 1.61492242 0)
(211.725397 1.5565885 0)
(211.57354 1.48753648 0)
(211.4264 1.40760208 0)
(211.28534 1.31670269 0)
(211.151772 1.21483437 0)
(211.027145 1.10206936 0)
(210.912934 0.978554364 0)
(210.810633 0.844509305 0)
(210.721744 0.700227133 0)
(210.647755 0.546066891 0)
(210.590058 0.382431193 0)
(210.550133 0.2097997 0)
(210.530264 0.0289869182 0)
(210.533717 -0.158464806 0)
(210.559449 -0.35182062 0)
(210.608591 -0.550192179 0)
(210.682366 -0.75234406 0)
(210.781608 -0.956879089 0)
(210.906944 -1.16226231 0)
(211.058775 -1.36679664 0)
(211.237219 -1.56863029 0)
(211.442082 -1.76579018 0)
(211.672831 -1.95622099 0)
(211.928572 -2.1378298 0)
(212.208041 -2.30853783 0)
(212.509605 -2.46633665 0)
(212.831271 -2.60934589 0)
(213.170722 -2.73587036 0)
(213.525349 -2.84445385 0)
(213.892298 -2.93392685 0)
(214.268541 -3.00344487 0)
(214.650929 -3.05251508 0)
(215.036276 -3.08100929 0)
(215.421422 -3.08916255 0)
(215.80331 -3.07755781 0)
(216.179047 -3.04709789 0)
(216.545962 -2.99896726 0)
(216.901649 -2.93458598 0)
(217.244001 -2.85555892 0)
(217.571231 -2.76362282 0)
(217.881883 -2.66059393 0)
(218.174827 -2.54831835 0)
(218.44925 -2.42862676 0)
(218.704639 -2.30329493 0)
(218.940754 -2.17401073 0)
(219.1576 -2.04234764 0)
(219.3554 -1.90974513 0)
(219.534562 -1.77749495 0)
(219.695644 -1.64673267 0)
(219.839332 -1.51843524 0)
(219.96641 -1.39342398 0)
(220.07773 -1.2723713 0)
(220.174197 -1.15580953 0)
(220.256754 -1.04414105 0)
(220.326362 -0.937649251 0)
(220.383988 -0.836512487 0)
(220.430587 -0.740823094 0)
(220.467094 -0.650606217 0)
(220.494412 -0.565832508 0)
(220.513419 -0.486403024 0)
(220.524955 -0.412168191 0)
(220.529815 -0.342961353 0)
(220.528757 -0.278603297 0)
(220.522537 -0.218897249 0)
(220.511846 -0.163616553 0)
(220.497277 -0.112566349 0)
(220.479348 -0.065664262 0)
(220.458127 -0.0229007808 0)
(220.434098 0.0159826392 0)
(220.407986 0.0507848809 0)
(220.380095 0.0817090005 0)
(220.350558 0.109166471 0)
(220.319558 0.133429406 0)
(220.287288 0.15476726 0)
(220.253939 0.173455991 0)
(220.219709 0.189734979 0)
(220.184786 0.2038178 0)
(220.149339 0.215904471 0)
(220.113525 0.226180731 0)
(220.077486 0.234816456 0)
(220.04135 0.241966262 0)
(220.005233 0.247771174 0)
(219.969237 0.252359981 0)
(219.933454 0.255849648 0)
(219.897969 0.258345644 0)
(219.862857 0.259942838 0)
(219.828185 0.260726677 0)
(219.794011 0.26077433 0)
(219.760388 0.260155768 0)
(219.727358 0.258934794 0)
(219.694958 0.257169893 0)
(219.663219 0.254914865 0)
(219.632164 0.252219265 0)
(219.601816 0.249128736 0)
(219.57219 0.245685232 0)
(219.543299 0.241927203 0)
(219.515152 0.237889747 0)
(219.48776 0.233604766 0)
(219.461127 0.229101118 0)
(219.435257 0.224404791 0)
(219.410154 0.219539076 0)
(219.385819 0.214524759 0)
(219.362253 0.209380295 0)
(219.339454 0.204122 0)
(219.317423 0.198764218 0)
(219.296157 0.193319483 0)
(219.275653 0.187798668 0)
(219.255909 0.182211102 0)
(219.23692 0.176564648 0)
(219.218684 0.170865743 0)
(219.201196 0.16511935 0)
(219.184454 0.159329059 0)
(219.168446 0.153496122 0)
(219.15319 0.14762329 0)
(219.138608 0.141695475 0)
(219.124944 0.135768883 0)
(219.111324 0.129557422 0)
(219.100905 0.124313007 0)
(219.080372 0.114400475 0)
(218.474831 -0.0517189848 0)
(218.486579 -0.0791210846 0)
(218.505468 -0.0143040546 0)
(218.515082 0.13977981 0)
(218.499159 0.360384045 0)
(218.449479 0.613212743 0)
(218.363507 0.863814109 0)
(218.243081 1.08420599 0)
(218.093323 1.25437936 0)
(217.921836 1.36191065 0)
(217.737715 1.40176776 0)
(217.55044 1.37563074 0)
(217.369061 1.28973042 0)
(217.201784 1.15239163 0)
(217.055784 0.973634189 0)
(216.936856 0.767455049 0)
(216.848654 0.554594014 0)
(216.791606 0.362537145 0)
(216.761937 0.221232878 0)
(216.751379 0.155811388 0)
(216.748044 0.17947506 0)
(216.738685 0.289649004 0)
(216.711446 0.46872271 0)
(216.657774 0.688617243 0)
(216.573331 0.917152119 0)
(216.458204 1.12410227 0)
(216.316456 1.28550076 0)
(216.155163 1.38567088 0)
(215.98324 1.41727283 0)
(215.810316 1.38011401 0)
(215.645835 1.27960076 0)
(215.498396 1.12556684 0)
(215.375221 0.931835388 0)
(215.281643 0.716321004 0)
(215.220536 0.500974021 0)
(215.191778 0.310712282 0)
(215.191892 0.170566325 0)
(215.21352 0.101380364 0)
(215.245798 0.115471886 0)
(215.2763 0.212583067 0)
(215.29346 0.378462933 0)
(215.288611 0.587570559 0)
(215.257261 0.80812228 0)
(215.199528 1.00934926 0)
(215.119619 1.16864386 0)
(215.024423 1.27602658 0)
(214.92158 1.33469346 0)
(214.817586 1.35776654 0)
(214.716541 1.36269044 0)
(214.619797 1.36547113 0)
(214.526454 1.37672404 0)
(214.434336 1.40047957 0)
(214.341001 1.43544714 0)
(214.244451 1.47756449 0)
(214.143402 1.5224834 0)
(214.037205 1.56708871 0)
(213.925598 1.60984754 0)
(213.80846 1.65034353 0)
(213.685679 1.68855226 0)
(213.557129 1.72428993 0)
(213.42272 1.7569978 0)
(213.282465 1.78579793 0)
(213.136518 1.80966154 0)
(212.985195 1.82755874 0)
(212.828968 1.83853475 0)
(212.668448 1.8417232 0)
(212.504382 1.83633279 0)
(212.337635 1.82163534 0)
(212.16919 1.79696561 0)
(212.000131 1.76173003 0)
(211.831639 1.71541745 0)
(211.664976 1.65760698 0)
(211.501472 1.58797167 0)
(211.342517 1.50627925 0)
(211.189552 1.41239098 0)
(211.044061 1.30625977 0)
(210.907568 1.18792807 0)
(210.78163 1.05752627 0)
(210.66783 0.915272122 0)
(210.567773 0.761474457 0)
(210.48308 0.596539684 0)
(210.41539 0.420986765 0)
(210.366308 0.235516658 0)
(210.337039 0.0408860116 0)
(210.331383 -0.162556227 0)
(210.349819 -0.373641403 0)
(210.393102 -0.591152268 0)
(210.462399 -0.813801801 0)
(210.558797 -1.04006435 0)
(210.68317 -1.26818365 0)
(210.836115 -1.49619742 0)
(211.017923 -1.72195423 0)
(211.228538 -1.94313994 0)
(211.467519 -2.15731699 0)
(211.734009 -2.36197586 0)
(212.026718 -2.55459807 0)
(212.343912 -2.73272883 0)
(212.683424 -2.89405512 0)
(213.042683 -3.03648404 0)
(213.418756 -3.15821618 0)
(213.808408 -3.25780933 0)
(214.208182 -3.33422815 0)
(214.61448 -3.38687724 0)
(215.023655 -3.41561587 0)
(215.432102 -3.42075417 0)
(215.836349 -3.40303142 0)
(216.233132 -3.36357844 0)
(216.619462 -3.30386694 0)
(216.992682 -3.22564928 0)
(217.350499 -3.1308925 0)
(217.691008 -3.02171029 0)
(218.012699 -2.90029664 0)
(218.31445 -2.76886376 0)
(218.595507 -2.62958661 0)
(218.855462 -2.4845556 0)
(219.094214 -2.33573814 0)
(219.311934 -2.18494913 0)
(219.50903 -2.03383036 0)
(219.686102 -1.88383794 0)
(219.843906 -1.73623667 0)
(219.983321 -1.59210078 0)
(220.105316 -1.45231946 0)
(220.210926 -1.31760605 0)
(220.301217 -1.18851016 0)
(220.37728 -1.06543273 0)
(220.440201 -0.948643801 0)
(220.491051 -0.838300918 0)
(220.530878 -0.734465132 0)
(220.560694 -0.637115224 0)
(220.581467 -0.546162585 0)
(220.594116 -0.461465942 0)
(220.599512 -0.382847914 0)
(220.598474 -0.31010649 0)
(220.591762 -0.243020632 0)
(220.58006 -0.181356297 0)
(220.563974 -0.124894953 0)
(220.544007 -0.0733944705 0)
(220.520603 -0.0265577932 0)
(220.494812 0.0158954451 0)
(220.467368 0.0543076572 0)
(220.437984 0.0889550313 0)
(220.406886 0.119955511 0)
(220.374287 0.147515052 0)
(220.340406 0.171863139 0)
(220.305458 0.193232443 0)
(220.26964 0.21186435 0)
(220.233136 0.227990234 0)
(220.19612 0.241825436 0)
(220.158749 0.253572767 0)
(220.121168 0.263422473 0)
(220.083511 0.271550672 0)
(220.045902 0.278118913 0)
(220.008455 0.283274835 0)
(219.971271 0.28715342 0)
(219.934437 0.289878274 0)
(219.898029 0.291562619 0)
(219.862109 0.29231002 0)
(219.826731 0.292215025 0)
(219.791938 0.291363764 0)
(219.75777 0.289834553 0)
(219.724256 0.287698512 0)
(219.691424 0.285020158 0)
(219.659298 0.281857986 0)
(219.627896 0.278265003 0)
(219.597234 0.274289234 0)
(219.567328 0.269974139 0)
(219.538187 0.265358977 0)
(219.50982 0.260479109 0)
(219.482235 0.255366291 0)
(219.455436 0.250048942 0)
(219.429425 0.244552415 0)
(219.404205 0.238899271 0)
(219.379775 0.233109542 0)
(219.356133 0.227200985 0)
(219.333275 0.221189326 0)
(219.311198 0.215088461 0)
(219.289897 0.208910626 0)
(219.269366 0.202666527 0)
(219.2496 0.196365415 0)
(219.230593 0.190015124 0)
(219.212339 0.183622077 0)
(219.194832 0.17719123 0)
(219.178069 0.170726217 0)
(219.162036 0.164228385 0)
(219.14675 0.157701232 0)
(219.132133 0.151129224 0)
(219.118426 0.144577708 0)
(219.104783 0.137734104 0)
(219.094334 0.131992878 0)
(219.074086 0.121183882 0)
(218.47524 -0.0625822637 0)
(218.488218 -0.0984545502 0)
(218.50724 -0.0265725172 0)
(218.516954 0.149480343 0)
(218.502294 0.405043023 0)
(218.453296 0.70008616 0)
(218.367033 0.993757419 0)
(218.245143 1.25286414 0)
(218.092635 1.45370218 0)
(217.917227 1.58147286 0)
(217.728351 1.62999762 0)
(217.535983 1.6009726 0)
(217.34974 1.50151102 0)
(217.178387 1.34129755 0)
(217.029577 1.13209317 0)
(216.909425 0.890335766 0)
(216.821622 0.640312684 0)
(216.766259 0.414140114 0)
(216.738957 0.246762552 0)
(216.730981 0.167553199 0)
(216.730483 0.192193081 0)
(216.724301 0.318244723 0)
(216.70005 0.525756818 0)
(216.64832 0.782250567 0)
(216.564184 1.05007469 0)
(216.447562 1.29360093 0)
(216.302673 1.48441676 0)
(216.136984 1.60382561 0)
(215.959955 1.64295002 0)
(215.781854 1.60132903 0)
(215.612808 1.4850794 0)
(215.462079 1.30551105 0)
(215.337481 1.07860999 0)
(215.244763 0.825175628 0)
(215.186917 0.570764928 0)
(215.163303 0.344442441 0)
(215.169121 0.175802511 0)
(215.19642 0.0899037087 0)
(215.234941 0.10145552 0)
(215.272584 0.210387647 0)
(215.297806 0.400640924 0)
(215.301457 0.642166439 0)
(215.277987 0.897564862 0)
(215.226884 1.1308291 0)
(215.152293 1.31538129 0)
(215.061281 1.43930724 0)
(214.961748 1.50612331 0)
(214.860475 1.53104957 0)
(214.761803 1.53449481 0)
(214.667249 1.53531125 0)
(214.575989 1.54611872 0)
(214.485825 1.57183601 0)
(214.394215 1.61110265 0)
(214.299011 1.65923758 0)
(214.198759 1.71115692 0)
(214.092654 1.7631802 0)
(213.980298 1.81346959 0)
(213.861465 1.86150446 0)
(213.735959 1.90723877 0)
(213.60359 1.95045098 0)
(213.464225 1.99048365 0)
(213.317845 2.0263022 0)
(213.164596 2.05668942 0)
(213.004805 2.080421 0)
(212.838969 2.09635658 0)
(212.667748 2.10345742 0)
(212.491949 2.10077186 0)
(212.312512 2.08742234 0)
(212.130503 2.06260616 0)
(211.947102 2.02560626 0)
(211.763595 1.97580389 0)
(211.581356 1.91268677 0)
(211.401839 1.83585143 0)
(211.226566 1.74500111 0)
(211.057111 1.63994128 0)
(210.89509 1.52057449 0)
(210.742153 1.38689603 0)
(210.599976 1.23899107 0)
(210.470254 1.07703423 0)
(210.354705 0.901291508 0)
(210.255062 0.712126983 0)
(210.173059 0.510011906 0)
(210.110472 0.295531397 0)
(210.069234 0.0694312206 0)
(210.0533 -0.16709696 0)
(210.06308 -0.412988376 0)
(210.099272 -0.666944688 0)
(210.163416 -0.927386231 0)
(210.256858 -1.19249232 0)
(210.380721 -1.46018946 0)
(210.535857 -1.72814627 0)
(210.722789 -1.99378513 0)
(210.941643 -2.25431455 0)
(211.192095 -2.50678003 0)
(211.473327 -2.74812995 0)
(211.783994 -2.97529451 0)
(212.122212 -3.18527518 0)
(212.485564 -3.37524065 0)
(212.871137 -3.5426242 0)
(213.275568 -3.68521661 0)
(213.695125 -3.80124883 0)
(214.125798 -3.88945804 0)
(214.563408 -3.94913232 0)
(215.00372 -3.98013095 0)
(215.44256 -3.98287911 0)
(215.875925 -3.95833832 0)
(216.300079 -3.90795532 0)
(216.711636 -3.83359414 0)
(217.107625 -3.73745618 0)
(217.485528 -3.62199386 0)
(217.843302 -3.4898229 0)
(218.179384 -3.34363802 0)
(218.492671 -3.18613542 0)
(218.782498 -3.01994487 0)
(219.048595 -2.84757313 0)
(219.291047 -2.67135928 0)
(219.510239 -2.4934418 0)
(219.706813 -2.315737 0)
(219.881612 -2.13992729 0)
(220.03564 -1.967458 0)
(220.170019 -1.7995416 0)
(220.285948 -1.63716772 0)
(220.384674 -1.48111769 0)
(220.467464 -1.33198186 0)
(220.535582 -1.19017898 0)
(220.590272 -1.05597641 0)
(220.632742 -0.92951047 0)
(220.664153 -0.810806452 0)
(220.685611 -0.699797734 0)
(220.698161 -0.596343241 0)
(220.702779 -0.500241519 0)
(220.700376 -0.411242966 0)
(220.691797 -0.329063608 0)
(220.677835 -0.253399108 0)
(220.659245 -0.183945744 0)
(220.636724 -0.120400707 0)
(220.610958 -0.0624971344 0)
(220.582616 -0.0100838664 0)