/*--------------------------------*- C++ -*----------------------------------*\
| =========                 |                                                 |
| \\      /  F ield         | OpenFOAM: The Open Source CFD Toolbox           |
|  \\    /   O peration     | Version:  v2012                                 |
|   \\  /    A nd           | Website:  www.openfoam.com                      |
|    \\/     M anipulation  |                                                 |
\*---------------------------------------------------------------------------*/
FoamFile
{
    version     2.0;
    format      ascii;
    class       surfaceScalarField;
    location    "2.59";
    object      phi;
}
// * * * * * * * * * * * * * * * * * * * * * * * * * * * * * * * * * * * * * //

dimensions      [0 3 -1 0 0 0 0];
oriented        oriented;


internalField   nonuniform List<scalar> 
56481
(
6.66689261e-07
-3.98228955e-11
6.66718989e-07
-2.65066971e-11
6.6672749e-07
9.49236335e-11
6.66678446e-07
3.12082629e-10
6.66547567e-07
5.94330263e-10
6.66325456e-07
9.04948212e-10
6.66015145e-07
1.20853359e-09
6.65628705e-07
1.47392888e-09
6.6518439e-07
1.67625471e-09
6.64703974e-07
1.79912183e-09
6.64210301e-07
1.83616215e-09
6.63725247e-07
1.79039638e-09
6.6326849e-07
1.67110861e-09
6.6285703e-07
1.49042335e-09
6.62504728e-07
1.26261931e-09
6.62220976e-07
1.00681935e-09
6.62008385e-07
7.50106552e-10
6.61860441e-07
5.27089308e-10
6.6176047e-07
3.74171156e-10
6.61682915e-07
3.20326111e-10
6.6159762e-07
3.78743142e-10
6.6147607e-07
5.43120937e-10
6.61296845e-07
7.89412646e-10
6.61048703e-07
1.08157719e-09
6.6073117e-07
1.37951757e-09
6.6035316e-07
1.64636999e-09
6.59930384e-07
1.85312172e-09
6.59482333e-07
1.98058544e-09
6.59029577e-07
2.0195624e-09
6.58591854e-07
1.9699001e-09
6.581869e-07
1.83915112e-09
6.57829669e-07
1.64143916e-09
6.57531521e-07
1.39684931e-09
6.5729907e-07
1.13106206e-09
6.57132997e-07
8.7423529e-10
6.57026828e-07
6.59144656e-10
6.56966106e-07
5.17520135e-10
6.56929826e-07
4.74019174e-10
6.56893666e-07
5.41256106e-10
6.56834457e-07
7.15749089e-10
6.56734166e-07
9.77172107e-10
6.56582675e-07
1.29169401e-09
6.56378905e-07
1.6190347e-09
6.56129912e-07
1.92149117e-09
6.55848208e-07
2.17206499e-09
6.55548134e-07
2.35919446e-09
6.55242347e-07
2.48681102e-09
6.54939396e-07
2.57011321e-09
6.54642909e-07
2.6289367e-09
6.54352284e-07
2.68124412e-09
6.54064324e-07
2.73884421e-09
6.53775045e-07
2.80623586e-09
6.53481033e-07
2.88211196e-09
6.53180071e-07
2.96217098e-09
6.52871105e-07
3.041776e-09
6.52553846e-07
3.11753521e-09
6.5222832e-07
3.18763825e-09
6.51894585e-07
3.25135898e-09
6.51552643e-07
3.30831516e-09
6.5120251e-07
3.35792647e-09
6.50844324e-07
3.39922278e-09
6.5047845e-07
3.43092459e-09
6.50105519e-07
3.45162836e-09
6.49726441e-07
3.45996797e-09
6.49342392e-07
3.45469321e-09
6.4895481e-07
3.43467791e-09
6.48565381e-07
3.39891843e-09
6.48176041e-07
3.34652195e-09
6.47788961e-07
3.27671664e-09
6.47406546e-07
3.18886525e-09
6.47031414e-07
3.08247564e-09
6.46666388e-07
2.95721827e-09
6.46314487e-07
2.81293318e-09
6.45978919e-07
2.64962646e-09
6.45663084e-07
2.46747047e-09
6.45370572e-07
2.26679265e-09
6.45105155e-07
2.04806539e-09
6.4487075e-07
1.81189552e-09
6.44671352e-07
1.55900268e-09
6.44510922e-07
1.29019796e-09
6.44393259e-07
1.006375e-09
6.44321498e-07
7.08593541e-10
6.44297483e-07
3.98335597e-10
6.44320256e-07
7.86360152e-11
6.44401965e-07
-2.52028042e-10
6.44546256e-07
-5.8801588e-10
6.44754331e-07
-9.30206192e-10
6.45026945e-07
-1.27688092e-09
6.45364662e-07
-1.62594904e-09
6.45767684e-07
-1.97518832e-09
6.46235648e-07
-2.32198207e-09
6.4676756e-07
-2.66345136e-09
6.47361746e-07
-2.9965666e-09
6.4801582e-07
-3.31818111e-09
6.48726685e-07
-3.62508078e-09
6.49490572e-07
-3.91405587e-09
6.50303083e-07
-4.18199365e-09
6.51159255e-07
-4.42597373e-09
6.52053622e-07
-4.64335686e-09
6.52980288e-07
-4.83187836e-09
6.53933005e-07
-4.98971988e-09
6.54905265e-07
-5.11555338e-09
6.55890406e-07
-5.2085808e-09
6.56881721e-07
-5.268541e-09
6.57872586e-07
-5.29570951e-09
6.58856566e-07
-5.29086683e-09
6.59827528e-07
-5.25527623e-09
6.60779735e-07
-5.19062143e-09
6.61707924e-07
-5.09895763e-09
6.62607365e-07
-4.98263934e-09
6.63473907e-07
-4.84425398e-09
6.64304e-07
-4.68654029e-09
6.65094705e-07
-4.5123247e-09
6.65843688e-07
-4.32445344e-09
6.66549199e-07
-4.12572447e-09
6.67210042e-07
-3.918841e-09
6.67825532e-07
-3.70636588e-09
6.68395449e-07
-3.49067995e-09
6.68919984e-07
-3.27395689e-09
6.69399697e-07
-3.05813942e-09
6.69835475e-07
-2.84492491e-09
6.70228493e-07
-2.63576813e-09
6.70580151e-07
-2.43186943e-09
6.70891989e-07
-2.23415604e-09
6.71165647e-07
-2.04330232e-09
6.71402972e-07
-1.8597905e-09
6.71606167e-07
-1.68395858e-09
6.71777777e-07
-1.51604839e-09
6.71920343e-07
-1.35612246e-09
6.72036191e-07
-1.20418304e-09
6.72127458e-07
-1.06016178e-09
6.72196255e-07
-9.23959856e-10
6.72244702e-07
-7.95438452e-10
6.72274885e-07
-6.74406658e-10
6.72288837e-07
-5.60658685e-10
6.72288587e-07
-4.54040601e-10
6.7227619e-07
-3.54448058e-10
6.72253682e-07
-2.61834803e-10
6.72222994e-07
-1.76307013e-10
6.72185762e-07
-9.80913638e-11
6.72142824e-07
-2.74709817e-11
6.72092788e-07
3.66735435e-11
6.72034004e-07
9.2951371e-11
6.71967516e-07
1.42093091e-10
6.71894439e-07
1.85490176e-10
6.71815775e-07
2.23733282e-10
6.71732402e-07
2.5730997e-10
6.71645098e-07
2.86714e-10
6.71554566e-07
3.12382322e-10
6.71461453e-07
3.34691607e-10
6.7136635e-07
3.53972568e-10
6.71269799e-07
3.70517797e-10
6.71172293e-07
3.8458684e-10
6.71074274e-07
3.96409158e-10
6.70976132e-07
4.06185363e-10
6.7087821e-07
4.14090264e-10
6.70780799e-07
4.20278733e-10
6.70684147e-07
4.24890428e-10
6.70588465e-07
4.28052896e-10
6.70493929e-07
4.29885215e-10
6.70400691e-07
4.30499437e-10
6.7030888e-07
4.30001967e-10
6.70218611e-07
4.28493086e-10
6.70129984e-07
4.26068097e-10
6.70043088e-07
4.22816017e-10
6.69958004e-07
4.18820067e-10
6.69874803e-07
4.1415687e-10
6.69793551e-07
4.08896596e-10
6.69714303e-07
4.03102109e-10
6.69637107e-07
3.96829684e-10
6.69562005e-07
3.9012928e-10
6.6948903e-07
3.83044449e-10
6.69418208e-07
3.75613649e-10
6.69349557e-07
3.67871015e-10
6.6928309e-07
3.59846578e-10
6.69218815e-07
3.51567584e-10
6.69156736e-07
3.43059056e-10
6.69096855e-07
3.34343646e-10
6.69039173e-07
3.25442428e-10
6.68983688e-07
3.16374514e-10
6.68930404e-07
3.07157148e-10
6.68879323e-07
2.97804655e-10
6.68830454e-07
2.88328462e-10
6.68783809e-07
2.78734636e-10
6.68739408e-07
2.69027645e-10
6.68697289e-07
2.59177526e-10
6.6865749e-07
2.49253239e-10
6.68620175e-07
2.38744869e-10
6.68585196e-07
2.29600139e-10
2.12078611e-10
6.66695755e-07
-6.89780179e-11
6.66748526e-07
-7.92779789e-11
6.66786513e-07
5.69375224e-11
6.6676969e-07
3.2890474e-10
6.6666476e-07
6.99260371e-10
6.66455091e-07
1.11461772e-09
6.66141122e-07
1.52250203e-09
6.65735975e-07
1.8790761e-09
6.65260668e-07
2.1515623e-09
6.64740628e-07
2.31916152e-09
6.64202874e-07
2.37391583e-09
6.63673574e-07
2.31969617e-09
6.63176493e-07
2.1681902e-09
6.62732416e-07
1.93449998e-09
6.6235864e-07
1.63639549e-09
6.6206736e-07
1.29809948e-09
6.6186276e-07
9.54706646e-10
6.61738055e-07
6.51793808e-10
6.61674369e-07
4.37857594e-10
6.61642628e-07
3.52066588e-10
6.61608073e-07
4.13298904e-10
6.61535981e-07
6.15212761e-10
6.61397741e-07
9.2765231e-10
6.61175567e-07
1.30375109e-09
6.60864809e-07
1.69027635e-09
6.60473511e-07
2.03766762e-09
6.60019672e-07
2.30696108e-09
6.59527456e-07
2.47280121e-09
6.59023562e-07
2.52345639e-09
6.58534367e-07
2.45909488e-09
6.58083992e-07
2.28952634e-09
6.57693002e-07
2.03242876e-09
6.57377267e-07
1.7125844e-09
6.57146581e-07
1.36174841e-09
6.57002798e-07
1.01801791e-09
6.5693842e-07
7.23523087e-10
6.56936372e-07
5.19568141e-10
6.56970756e-07
4.39635293e-10
6.57010037e-07
5.01974279e-10
6.5702201e-07
7.03776104e-10
6.56979844e-07
1.01933821e-09
6.56866967e-07
1.40457166e-09
6.56679696e-07
1.80630549e-09
6.56426824e-07
2.17436343e-09
6.56126194e-07
2.47269441e-09
6.55799375e-07
2.68601331e-09
6.55466097e-07
2.82008945e-09
6.55140108e-07
2.89610188e-09
6.54827478e-07
2.94156721e-09
6.54527396e-07
2.98132601e-09
6.5423467e-07
3.03157052e-09
6.53942674e-07
3.09823185e-09
6.53645665e-07
3.17912045e-09
6.53339908e-07
3.26792791e-09
6.5302367e-07
3.35801443e-09
6.52696553e-07
3.44465146e-09
6.52358717e-07
3.525475e-09
6.52010338e-07
3.59973724e-09
6.51651443e-07
3.66721022e-09
6.51281988e-07
3.72738195e-09
6.50902044e-07
3.77916656e-09
6.50511955e-07
3.82101388e-09
6.50112409e-07
3.85117433e-09
6.49704436e-07
3.86794035e-09
6.49289367e-07
3.86976224e-09
6.4886884e-07
3.85520578e-09
6.48444777e-07
3.82298075e-09
6.4801938e-07
3.77191967e-09
6.4759511e-07
3.70098651e-09
6.47174682e-07
3.60929241e-09
6.4676105e-07
3.49610857e-09
6.46357381e-07
3.36088673e-09
6.45967047e-07
3.20326698e-09
6.45593599e-07
3.02307519e-09
6.45240743e-07
2.82032654e-09
6.44912315e-07
2.59521972e-09
6.44612256e-07
2.34812476e-09
6.44344572e-07
2.07957908e-09
6.44113286e-07
1.79028934e-09
6.43922281e-07
1.48120251e-09
6.43775327e-07
1.153329e-09
6.43676764e-07
8.07156405e-10
6.43631238e-07
4.43862334e-10
6.43646069e-07
6.38049856e-11
6.43718331e-07
-3.24290764e-10
6.43854226e-07
-7.23910752e-10
6.44056117e-07
-1.13209715e-09
6.44326252e-07
-1.54701571e-09
6.44666108e-07
-1.96580513e-09
6.45076347e-07
-2.38542729e-09
6.45556973e-07
-2.80260838e-09
6.46107273e-07
-3.21375057e-09
6.46725731e-07
-3.61502481e-09
6.47410008e-07
-4.00245829e-09
6.48156935e-07
-4.37200819e-09
6.4896253e-07
-4.71965091e-09
6.49822034e-07
-5.0414971e-09
6.50729966e-07
-5.33390592e-09
6.51680199e-07
-5.5935894e-09
6.52666045e-07
-5.81772463e-09
6.53680369e-07
-6.00404375e-09
6.54715709e-07
-6.15089369e-09
6.5576442e-07
-6.25729154e-09
6.56818818e-07
-6.32293917e-09
6.57871334e-07
-6.34822545e-09
6.58914654e-07
-6.33418679e-09
6.59941853e-07
-6.28247494e-09
6.60946505e-07
-6.19527426e-09
6.61922781e-07
-6.07523346e-09
6.62865511e-07
-5.92536915e-09
6.63770234e-07
-5.74897707e-09
6.6463322e-07
-5.54952614e-09
6.65451471e-07
-5.33057546e-09
6.66222705e-07
-5.09568783e-09
6.66945326e-07
-4.8483451e-09
6.67618375e-07
-4.59189059e-09
6.68241484e-07
-4.32947426e-09
6.68814808e-07
-4.06400384e-09
6.69338969e-07
-3.79811782e-09
6.69814988e-07
-3.53415861e-09
6.70244218e-07
-3.27415543e-09
6.70628282e-07
-3.01983216e-09
6.70969025e-07
-2.77261179e-09
6.71268503e-07
-2.53363473e-09
6.71528968e-07
-2.30376686e-09
6.71752793e-07
-2.08361557e-09
6.71942394e-07
-1.8735598e-09
6.72100164e-07
-1.67381844e-09
6.72228577e-07
-1.48453565e-09
6.72330264e-07
-1.30586945e-09
6.72407587e-07
-1.13748511e-09
6.72462756e-07
-9.7912866e-10
6.72497924e-07
-8.30606576e-10
6.72515181e-07
-6.91663736e-10
6.72516572e-07
-5.62049853e-10
6.7250403e-07
-4.41498734e-10
6.72479237e-07
-3.29654701e-10
6.72443556e-07
-2.26153759e-10
6.72397931e-07
-1.30682415e-10
6.72343e-07
-4.31597623e-11
6.72280417e-07
3.511153e-11
6.72212314e-07
1.04776944e-10
6.72138557e-07
1.66708386e-10
6.72059374e-07
2.21276133e-10
6.71975364e-07
2.69500006e-10
6.71887098e-07
3.1199914e-10
6.71795186e-07
3.49222439e-10
6.7170025e-07
3.81649178e-10
6.71602886e-07
4.09746564e-10
6.71503643e-07
4.33935181e-10
6.71403023e-07
4.54591853e-10
6.71301487e-07
4.72054441e-10
6.71199448e-07
4.8662532e-10
6.71097282e-07
4.98575058e-10
6.70995324e-07
5.08144034e-10
6.70893869e-07
5.1554495e-10
6.70793179e-07
5.20968482e-10
6.70693482e-07
5.24587644e-10
6.70594975e-07
5.26560262e-10
6.70497827e-07
5.27032527e-10
6.70402186e-07
5.26140378e-10
6.70308177e-07
5.24011164e-10
6.70215907e-07
5.20763196e-10
6.70125468e-07
5.16507369e-10
6.70036938e-07
5.11345922e-10
6.69950385e-07
5.05373433e-10
6.69865865e-07
4.98676273e-10
6.69783429e-07
4.91333179e-10
6.69703116e-07
4.83414578e-10
6.69624962e-07
4.74983682e-10
6.69548994e-07
4.66096926e-10
6.69475235e-07
4.56803816e-10
6.694037e-07
4.47148347e-10
6.69334402e-07
4.37169694e-10
6.69267346e-07
4.26902228e-10
6.69202537e-07
4.16376853e-10
6.69139974e-07
4.05621493e-10
6.69079657e-07
3.94660802e-10
6.69021582e-07
3.83517083e-10
6.68965747e-07
3.72209852e-10
6.68912148e-07
3.60756073e-10
6.68860784e-07
3.49169069e-10
6.68811653e-07
3.37458889e-10
6.68764758e-07
3.25629742e-10
6.68720099e-07
3.13686653e-10
6.68677681e-07
3.01595831e-10
6.68637465e-07
2.89468821e-10
6.68599497e-07
2.76712994e-10
6.68563129e-07
2.65968369e-10
2.45524812e-10
6.6669153e-07
-9.3807562e-11
6.66737789e-07
-1.25537308e-10
6.667676e-07
2.71262267e-11
6.66740432e-07
3.56073183e-10
6.66628422e-07
8.1127002e-10
6.66416805e-07
1.32623471e-09
6.6610554e-07
1.83376694e-09
6.65706222e-07
2.27839434e-09
6.6523826e-07
2.61952467e-09
6.6472563e-07
2.83179072e-09
6.64194183e-07
2.90536329e-09
6.63669283e-07
2.84459655e-09
6.63174195e-07
2.66327763e-09
6.62729372e-07
2.37932304e-09
6.62351894e-07
2.01387345e-09
6.62054007e-07
1.59598685e-09
6.61840478e-07
1.16823494e-09
6.61705699e-07
7.86572992e-10
6.61632085e-07
5.1147155e-10
6.61590975e-07
3.93177215e-10
6.6154709e-07
4.57183778e-10
6.61466092e-07
6.96210318e-10
6.61321009e-07
1.07273574e-09
6.61095861e-07
1.52889915e-09
6.60786848e-07
1.99928894e-09
6.60401537e-07
2.42297843e-09
6.59956536e-07
2.75196273e-09
6.5947432e-07
2.95501742e-09
6.5898006e-07
3.01771565e-09
6.58499014e-07
2.94014138e-09
6.58054599e-07
2.73394137e-09
6.57666976e-07
2.42005147e-09
6.57351811e-07
2.02774974e-09
6.57118919e-07
1.59464061e-09
6.56970715e-07
1.16622097e-09
6.5690079e-07
7.93448229e-10
6.56893051e-07
5.27307629e-10
6.5692255e-07
4.10136202e-10
6.56958962e-07
4.65562037e-10
6.56971647e-07
6.91091603e-10
6.56934866e-07
1.05611934e-09
6.56832289e-07
1.50714813e-09
6.56659333e-07
1.97926129e-09
6.56422948e-07
2.41074836e-09
6.56138809e-07
2.75683404e-09
6.55826628e-07
2.99819429e-09
6.55505033e-07
3.14168468e-09
6.55187544e-07
3.21359006e-09
6.54880713e-07
3.24839815e-09
6.54584579e-07
3.27745995e-09
6.54294795e-07
3.321355e-09
6.54005307e-07
3.38771939e-09
6.53710574e-07
3.47385424e-09
6.53406739e-07
3.57176297e-09
6.53091771e-07
3.67298193e-09
6.52764942e-07
3.77148056e-09
6.52426136e-07
3.86428141e-09
6.52075349e-07
3.95052356e-09
6.51712504e-07
4.03005535e-09
6.51337501e-07
4.10238501e-09
6.50950381e-07
4.16628711e-09
6.50551466e-07
4.21992828e-09
6.5014144e-07
4.26120048e-09
6.49721366e-07
4.28801392e-09
6.49292689e-07
4.29843974e-09
6.48857168e-07
4.29072688e-09
6.48416863e-07
4.26328577e-09
6.47974121e-07
4.21466127e-09
6.47531566e-07
4.14354187e-09
6.47092079e-07
4.04877973e-09
6.4665878e-07
3.92940746e-09
6.46235005e-07
3.78466111e-09
6.45824285e-07
3.61398726e-09
6.45430323e-07
3.4170374e-09
6.45056979e-07
3.19366993e-09
6.44708255e-07
2.94394388e-09
6.44388272e-07
2.66810796e-09
6.4410125e-07
2.36660146e-09
6.43851488e-07
2.04005111e-09
6.43643439e-07
1.6892514e-09
6.43481667e-07
1.31510127e-09
6.43370082e-07
9.18740597e-10
6.4331128e-07
5.02664563e-10
6.43304983e-07
7.01020806e-11
6.43363137e-07
-3.8244454e-10
6.4348687e-07
-8.47643495e-10
6.43679388e-07
-1.32461546e-09
6.43942726e-07
-1.81035417e-09
6.44278619e-07
-2.30169815e-09
6.44688213e-07
-2.79502096e-09
6.45171874e-07
-3.2862697e-09
6.45729165e-07
-3.77104088e-09
6.46358788e-07
-4.2446485e-09
6.47058542e-07
-4.70221148e-09
6.47825287e-07
-5.1387538e-09
6.48654953e-07
-5.54931692e-09
6.49542557e-07
-5.92910112e-09
6.50482259e-07
-6.27360785e-09
6.51467441e-07
-6.57877131e-09
6.52490816e-07
-6.84110003e-09
6.53544565e-07
-7.05779266e-09
6.54620489e-07
-7.22681718e-09
6.5571018e-07
-7.34698292e-09
6.56805202e-07
-7.41796114e-09
6.57897264e-07
-7.44028717e-09
6.58978387e-07
-7.41530954e-09
6.60041056e-07
-7.34514432e-09
6.61078349e-07
-7.2325675e-09
6.62084039e-07
-7.08092288e-09
6.63052666e-07
-6.89399649e-09
6.63979589e-07
-6.67590044e-09
6.64861001e-07
-6.43093804e-09
6.65693923e-07
-6.1634975e-09
6.66476179e-07
-5.87794376e-09
6.67206349e-07
-5.57851459e-09
6.67883709e-07
-5.26925071e-09
6.68508165e-07
-4.95393074e-09
6.69080176e-07
-4.63601481e-09
6.69600677e-07
-4.31861897e-09
6.70071012e-07
-4.00449337e-09
6.70492866e-07
-3.69600889e-09
6.70868202e-07
-3.39516817e-09
6.71199201e-07
-3.10361152e-09
6.71488202e-07
-2.82263532e-09
6.71737646e-07
-2.55321048e-09
6.7195006e-07
-2.29603e-09
6.72128053e-07
-2.05155326e-09
6.72274268e-07
-1.82003295e-09
6.72391278e-07
-1.60154577e-09
6.72481429e-07
-1.39602051e-09
6.72547176e-07
-1.20323159e-09
6.72590939e-07
-1.0228923e-09
6.72614995e-07
-8.54662472e-10
6.72621379e-07
-6.98047575e-10
6.72611808e-07
-5.52479286e-10
6.72588436e-07
-4.1812645e-10
6.72553312e-07
-2.94530056e-10
6.7250846e-07
-1.81302597e-10
6.72456016e-07
-7.82377117e-11
6.7239769e-07
1.51659984e-11
6.72331967e-07
1.00834606e-10
6.72259573e-07
1.77170245e-10
6.72181032e-07
2.45249754e-10
6.72096906e-07
3.05401958e-10
6.72008075e-07
3.5833138e-10
6.71915306e-07
4.04768433e-10
6.71819242e-07
4.45285755e-10
6.71720489e-07
4.80402498e-10
6.71619618e-07
5.10617794e-10
6.7151716e-07
5.36392772e-10
6.71413606e-07
5.5814561e-10
6.71309406e-07
5.76254709e-10
6.71204968e-07
5.91063067e-10
6.7110066e-07
6.02883286e-10
6.70996805e-07
6.11999195e-10
6.70893684e-07
6.18666359e-10
6.70791536e-07
6.23115725e-10
6.70690567e-07
6.2555654e-10
6.7059095e-07
6.26177923e-10
6.7049283e-07
6.2515238e-10
6.70396333e-07
6.22637446e-10
6.70301566e-07
6.18778177e-10
6.70208622e-07
6.13707336e-10
6.70117581e-07
6.07547992e-10
6.70028514e-07
6.00412644e-10
6.69941483e-07
5.92404913e-10
6.6985654e-07
5.83619323e-10
6.69773731e-07
5.74142267e-10
6.69693094e-07
5.64051362e-10
6.69614661e-07
5.5341677e-10
6.69538456e-07
5.42301629e-10
6.69464498e-07
5.30761729e-10
6.693928e-07
5.18846955e-10
6.69323367e-07
5.06601835e-10
6.69256204e-07
4.94065312e-10
6.69191309e-07
4.81272074e-10
6.69128678e-07
4.68252963e-10
6.69068304e-07
4.55034582e-10
6.69010181e-07
4.41640362e-10
6.689543e-07
4.28090174e-10
6.68900656e-07
4.14400754e-10
6.6884924e-07
4.00584716e-10
6.68800048e-07
3.86651277e-10
6.68753074e-07
3.72603714e-10
6.68708313e-07
3.58447449e-10
6.68665765e-07
3.44143851e-10
6.68625413e-07
3.29820588e-10
6.68587351e-07
3.14775503e-10
6.68551362e-07
3.01956976e-10
2.77731634e-10
6.66698399e-07
-1.25506364e-10
6.6675513e-07
-1.82268553e-10
6.66794018e-07
-1.17612765e-11
6.66781083e-07
3.69007873e-10
6.66679409e-07
9.12943928e-10
6.66471568e-07
1.53407546e-09
6.66156404e-07
2.14893072e-09
6.65745638e-07
2.68916074e-09
6.65259678e-07
3.10548441e-09
6.64724269e-07
3.3672005e-09
6.641676e-07
3.46203143e-09
6.63617708e-07
3.3944888e-09
6.63100577e-07
3.18040918e-09
6.62639124e-07
2.84077532e-09
6.62252333e-07
2.40066515e-09
6.61953457e-07
1.89486261e-09
6.61747089e-07
1.37460273e-09
6.61626185e-07
9.07476687e-10
6.61571013e-07
5.66644148e-10
6.61551453e-07
4.12737491e-10
6.61531646e-07
4.76990494e-10
6.61474949e-07
7.52906744e-10
6.61350197e-07
1.19748855e-09
6.611373e-07
1.7417953e-09
6.60829972e-07
2.306617e-09
6.60435416e-07
2.8175352e-09
6.59971727e-07
3.21565122e-09
6.5946417e-07
3.46257485e-09
6.58941414e-07
3.54047145e-09
6.58432452e-07
3.4491036e-09
6.57964347e-07
3.20204652e-09
6.57560563e-07
2.82383494e-09
6.57239411e-07
2.34890152e-09
6.57012228e-07
1.82182356e-09
6.56881336e-07
1.29711331e-09
6.56838476e-07
8.36308117e-10
6.56864945e-07
5.00838781e-10
6.56933409e-07
3.4167193e-10
6.57010881e-07
3.88089807e-10
6.57063281e-07
6.38691886e-10
6.57061183e-07
1.05821715e-09
6.5698504e-07
1.5832918e-09
6.5682877e-07
2.1355306e-09
6.56599945e-07
2.63957425e-09
6.56316361e-07
3.04041721e-09
6.56000491e-07
3.31406477e-09
6.55673572e-07
3.46860338e-09
6.55351062e-07
3.53610047e-09
6.55040537e-07
3.55892271e-09
6.54742205e-07
3.57579252e-09
6.5445126e-07
3.61229943e-09
6.54160883e-07
3.67809668e-09
6.53864722e-07
3.77001515e-09
6.53558246e-07
3.87823905e-09
6.53238936e-07
3.99229231e-09
6.52905739e-07
4.10467716e-09
6.52558327e-07
4.21169386e-09
6.5219654e-07
4.31231046e-09
6.51820174e-07
4.40642075e-09
6.51429033e-07
4.49352645e-09
6.51023092e-07
4.57222754e-09
6.50602659e-07
4.64036192e-09
6.50168448e-07
4.69541124e-09
6.497216e-07
4.73486165e-09
6.49263656e-07
4.75638364e-09
6.4879652e-07
4.75786278e-09
6.48322435e-07
4.73737118e-09
6.47843963e-07
4.69313312e-09
6.47363972e-07
4.62353349e-09
6.46885612e-07
4.52713966e-09
6.46412298e-07
4.40272089e-09
6.45947684e-07
4.24927501e-09
6.45495634e-07
4.0660372e-09
6.45060197e-07
3.85247504e-09
6.44645575e-07
3.60829209e-09
6.44256097e-07
3.33342188e-09
6.43896188e-07
3.02801615e-09
6.43570344e-07
2.6924457e-09
6.43283099e-07
2.3272966e-09
6.43038976e-07
1.93337384e-09
6.42842354e-07
1.51172393e-09
6.4269748e-07
1.06361388e-09
6.42609578e-07
5.90566817e-10
6.42586201e-07
9.3479033e-11
6.42626348e-07
-4.22591695e-10
6.42735932e-07
-9.57226941e-10
6.42918202e-07
-1.50688567e-09
6.43176252e-07
-2.06840458e-09
6.43512417e-07
-2.63786322e-09
6.43928285e-07
-3.21088883e-09
6.44424664e-07
-3.78264872e-09
6.45001478e-07
-4.34785447e-09
6.45657663e-07
-4.90083367e-09
6.46391095e-07
-5.43564377e-09
6.47198543e-07
-5.94620116e-09
6.4807565e-07
-6.42642403e-09
6.4901696e-07
-6.87041105e-09
6.50015974e-07
-7.27262244e-09
6.51065251e-07
-7.62804793e-09
6.52156536e-07
-7.93238552e-09
6.53280933e-07
-8.18218931e-09
6.54429089e-07
-8.37497331e-09
6.5559141e-07
-8.5093037e-09
6.56758276e-07
-8.58482704e-09
6.5792026e-07
-8.60227192e-09
6.59068334e-07
-8.56338349e-09
6.60194049e-07
-8.47085889e-09
6.61289689e-07
-8.32820738e-09
6.62348392e-07
-8.13962616e-09
6.63364233e-07
-7.90983711e-09
6.64332268e-07
-7.64393525e-09
6.65248548e-07
-7.3472181e-09
6.66110101e-07
-7.02505045e-09
6.66914887e-07
-6.68273047e-09
6.67661737e-07
-6.32536423e-09
6.68350269e-07
-5.95778245e-09
6.68980804e-07
-5.58446586e-09
6.69554272e-07
-5.20948302e-09
6.70072118e-07
-4.83646526e-09
6.70536212e-07
-4.46858709e-09
6.70948759e-07
-4.10855619e-09
6.71312224e-07
-3.75863284e-09
6.71629259e-07
-3.42064622e-09
6.7190265e-07
-3.09602661e-09
6.72135273e-07
-2.78583389e-09
6.72330046e-07
-2.49080264e-09
6.72489875e-07
-2.21138274e-09
6.72617619e-07
-1.9477769e-09
6.72716061e-07
-1.69998703e-09
6.72787895e-07
-1.46785535e-09
6.72835737e-07
-1.25107355e-09
6.72862062e-07
-1.04921641e-09
6.72869195e-07
-8.61796089e-10
6.72859443e-07
-6.88295764e-10
6.72835172e-07
-5.28207886e-10
6.72798107e-07
-3.81061642e-10
6.72750025e-07
-2.46448246e-10
6.72691877e-07
-1.23154111e-10
6.72623335e-07
-9.69613593e-12
6.72547182e-07
9.13194214e-11
6.72465052e-07
1.82963922e-10
6.7237751e-07
2.64712595e-10
6.72285401e-07
3.37359252e-10
6.72189218e-07
4.01584539e-10
6.72089524e-07
4.58024942e-10
6.71986936e-07
5.07356777e-10
6.71882021e-07
5.50201151e-10
6.71775301e-07
5.87121881e-10
6.71667268e-07
6.18651443e-10
6.71558371e-07
6.45289257e-10
6.7144902e-07
6.67496762e-10
6.71339579e-07
6.85695606e-10
6.71230375e-07
7.00267536e-10
6.711217e-07
7.11558067e-10
6.71013819e-07
7.19879641e-10
6.70906972e-07
7.25514012e-10
6.7080137e-07
7.28717208e-10
6.70697204e-07
7.29722977e-10
6.70594637e-07
7.28744349e-10
6.70493813e-07
7.25977013e-10
6.7039485e-07
7.21600245e-10
6.70297849e-07
7.15778941e-10
6.70202893e-07
7.08663283e-10
6.7011005e-07
7.00391549e-10
6.70019373e-07
6.91089117e-10
6.69930908e-07
6.80870556e-10
6.69844687e-07
6.69839548e-10
6.69760739e-07
6.58090209e-10
6.69679084e-07
6.4570655e-10
6.69599737e-07
6.32764186e-10
6.69522708e-07
6.19330951e-10
6.69448003e-07
6.05466611e-10
6.69375625e-07
5.91224535e-10
6.69305575e-07
5.76652318e-10
6.69237848e-07
5.61791494e-10
6.69172441e-07
5.46679027e-10
6.69109347e-07
5.31347729e-10
6.69048556e-07
5.15825783e-10
6.68990058e-07
5.00137934e-10
6.68933843e-07
4.84305044e-10
6.68879899e-07
4.68344624e-10
6.68828214e-07
4.5226981e-10
6.68778775e-07
4.3609042e-10
6.68731568e-07
4.19810314e-10
6.68686578e-07
4.03437922e-10
6.68643789e-07
3.86933179e-10
6.68603147e-07
3.70461906e-10
6.68564683e-07
3.53239251e-10
6.68527809e-07
3.38831754e-10
3.11671899e-10
6.66694925e-07
-1.53831018e-10
6.66749791e-07
-2.37135182e-10
6.66794292e-07
-5.62619644e-11
6.66779182e-07
3.8411798e-10
6.66675884e-07
1.01624229e-09
6.66466583e-07
1.74337569e-09
6.66149899e-07
2.46561529e-09
6.65737211e-07
3.10184864e-09
6.65248583e-07
3.59411207e-09
6.64709437e-07
3.9063468e-09
6.64147725e-07
4.02374313e-09
6.63591372e-07
3.95084175e-09
6.63066397e-07
3.70538494e-09
6.6259592e-07
3.3112519e-09
6.6219934e-07
2.79724526e-09
6.61890626e-07
2.20357599e-09
6.61675421e-07
1.58980805e-09
6.61548016e-07
1.03488185e-09
6.61489686e-07
6.24973874e-10
6.61469581e-07
4.32842404e-10
6.61449322e-07
4.97249999e-10
6.61391179e-07
8.11049199e-10
6.61264829e-07
1.32383859e-09
6.61051319e-07
1.95530581e-09
6.6074483e-07
2.61310607e-09
6.60352213e-07
3.21015163e-09
6.59890755e-07
3.67710918e-09
6.59384902e-07
3.96842821e-09
6.5886279e-07
4.06258305e-09
6.58353233e-07
3.95866115e-09
6.57883381e-07
3.67189879e-09
6.57476915e-07
3.23030021e-09
6.57152483e-07
2.67333439e-09
6.56922144e-07
2.05216244e-09
6.56789774e-07
1.4294826e-09
6.56749411e-07
8.76671462e-10
6.56783797e-07
4.66453038e-10
6.56865019e-07
2.60449479e-10
6.56957872e-07
2.95236862e-10
6.5702631e-07
5.70253926e-10
6.57040042e-07
1.04448535e-09
6.56979545e-07
1.64378902e-09
6.56838925e-07
2.27615046e-09
6.56625332e-07
2.85316746e-09
6.56355897e-07
3.30985142e-09
6.560527e-07
3.6172621e-09
6.5573699e-07
3.78431314e-09
6.5542451e-07
3.84858094e-09
6.55123179e-07
3.86025313e-09
6.54833422e-07
3.86555002e-09
6.54550438e-07
3.89528317e-09
6.54267217e-07
3.96131824e-09
6.53977097e-07
4.06013468e-09
6.53675205e-07
4.18013163e-09
6.53358701e-07
4.30879614e-09
6.53026264e-07
4.43711413e-09
6.52677343e-07
4.56061472e-09
6.52311598e-07
4.67805523e-09
6.51928677e-07
4.7893419e-09
6.51528267e-07
4.89393656e-09
6.51110269e-07
4.99022581e-09
6.50674957e-07
5.0756733e-09
6.50223068e-07
5.1473003e-09
6.49755812e-07
5.20211819e-09
6.49274847e-07
5.23734788e-09
6.48782248e-07
5.25046229e-09
6.48280467e-07
5.2391525e-09
6.47772313e-07
5.20128658e-09
6.47260927e-07
5.1349194e-09
6.46749748e-07
5.03831922e-09
6.46242478e-07
4.90999096e-09
6.45743048e-07
4.74870496e-09
6.45255581e-07
4.55350338e-09
6.44784367e-07
4.323689e-09
6.44333836e-07
4.05882365e-09
6.4390854e-07
3.75871742e-09
6.43513142e-07
3.42341415e-09
6.43152395e-07
3.0531931e-09
6.42831124e-07
2.64856799e-09
6.42554208e-07
2.21028963e-09
6.42326572e-07
1.73935964e-09
6.42153088e-07
1.23709794e-09
6.42038369e-07
7.05285757e-10
6.41985512e-07
1.46335905e-10
6.420017e-07
-4.38779045e-10
6.42090653e-07
-1.04618065e-09
6.42256576e-07
-1.67280892e-09
6.42502944e-07
-2.31477236e-09
6.42832726e-07
-2.9676453e-09
6.43248186e-07
-3.62634871e-09
6.43750713e-07
-4.28517543e-09
6.44340705e-07
-4.93784704e-09
6.45017457e-07
-5.57758549e-09
6.45779051e-07
-6.19723716e-09
6.46622279e-07
-6.78942947e-09
6.47542604e-07
-7.34674914e-09
6.48534159e-07
-7.86196635e-09
6.49589804e-07
-8.32826683e-09
6.50701228e-07
-8.73947185e-09
6.51859113e-07
-9.09027069e-09
6.53053339e-07
-9.3764153e-09
6.54273225e-07
-9.59485913e-09
6.55507797e-07
-9.74387566e-09
6.56746065e-07
-9.82309511e-09
6.57977295e-07
-9.83350227e-09
6.59191261e-07
-9.77734973e-09
6.60378468e-07
-9.65806589e-09
6.61530333e-07
-9.4800722e-09
6.62639323e-07
-9.24861618e-09
6.63699046e-07
-8.96955952e-09
6.64704292e-07
-8.64918125e-09
6.65651036e-07
-8.29396235e-09
6.665364e-07
-7.91041511e-09
6.67358588e-07
-7.50491852e-09
6.68116793e-07
-7.0835684e-09
6.6881109e-07
-6.65207967e-09
6.69442326e-07
-6.21570243e-09
6.70011999e-07
-5.77915561e-09
6.70522139e-07
-5.34660511e-09
6.70975203e-07
-4.92165092e-09
6.71373972e-07
-4.50732543e-09
6.71721463e-07
-4.10612377e-09
6.72020847e-07
-3.7200301e-09
6.72275381e-07
-3.35056096e-09
6.72488351e-07
-2.99880376e-09
6.72663021e-07
-2.66547265e-09
6.72802597e-07
-2.35095887e-09
6.72910196e-07
-2.0553759e-09
6.72988819e-07
-1.77860962e-09
6.73041323e-07
-1.52036015e-09
6.73070424e-07
-1.28017396e-09
6.73078689e-07
-1.05748135e-09
6.73068519e-07
-8.51626284e-10
6.73042104e-07
-6.6188096e-10
6.73001376e-07
-4.87479935e-10
6.72947988e-07
-3.27673498e-10
6.72883334e-07
-1.81794079e-10
6.72809378e-07
-4.91978053e-11
6.72729293e-07
7.03884099e-11
6.72642335e-07
1.78277171e-10
6.72550129e-07
2.75170567e-10
6.72453124e-07
3.61717694e-10
6.72351986e-07
4.38497161e-10
6.7224737e-07
5.06200442e-10
6.72139875e-07
5.65519545e-10
6.72030084e-07
6.17147848e-10
6.71918537e-07
6.61748262e-10
6.71805725e-07
6.99934095e-10
6.71692099e-07
7.32277036e-10
6.71578079e-07
7.59309366e-10
6.71464052e-07
7.81523791e-10
6.71350373e-07
7.99374099e-10
6.71237364e-07
8.13276875e-10
6.71125307e-07
8.23615474e-10
6.71014445e-07
8.30741219e-10
6.70904986e-07
8.34972809e-10
6.70797104e-07
8.36599289e-10
6.70690945e-07
8.35882671e-10
6.7058663e-07
8.33059392e-10
6.70484262e-07
8.28344372e-10
6.7038393e-07
8.2193259e-10
6.70285707e-07
8.14002117e-10
6.70189656e-07
8.04714325e-10
6.7009583e-07
7.94217397e-10
6.70004274e-07
7.82645345e-10
6.69915024e-07
7.70120523e-10
6.69828109e-07
7.56753671e-10
6.69743554e-07
7.42645502e-10
6.69661375e-07
7.27886131e-10
6.69581582e-07
7.1255696e-10
6.69504181e-07
6.96731293e-10
6.69429174e-07
6.80473879e-10
6.69356556e-07
6.63842639e-10
6.69286319e-07
6.46889187e-10
6.69218452e-07
6.29658346e-10
6.69152942e-07
6.12189682e-10
6.69089772e-07
5.9451791e-10
6.69028925e-07
5.76672356e-10
6.68970385e-07
5.58678362e-10
6.68914133e-07
5.4055693e-10
6.68860152e-07
5.22325504e-10
6.68808424e-07
5.03997054e-10
6.68758933e-07
4.85581517e-10
6.68711661e-07
4.67083208e-10
6.68666586e-07
4.48512638e-10
6.68623692e-07
4.29827251e-10
6.68582942e-07
4.11212086e-10
6.68544407e-07
3.91773483e-10
6.68507821e-07
3.75418127e-10
3.44568124e-10
6.66698036e-07
-1.85166768e-10
6.66755994e-07
-2.95092952e-10
6.66798396e-07
-9.86648829e-11
6.66786889e-07
3.95625044e-10
6.66685525e-07
1.11760695e-09
6.66475876e-07
1.953024e-09
6.66155705e-07
2.78578661e-09
6.65735926e-07
3.52162746e-09
6.65236673e-07
4.0933652e-09
6.64684083e-07
4.45893721e-09
6.64107384e-07
4.60044191e-09
6.63536114e-07
4.52211152e-09
6.62997989e-07
4.24350992e-09
6.62517678e-07
3.79156304e-09
6.62115711e-07
3.19921268e-09
6.61806484e-07
2.51280275e-09
6.6159514e-07
1.80115166e-09
6.61474503e-07
1.15551884e-09
6.61424055e-07
6.75422533e-10
6.61412162e-07
4.44734771e-10
6.6140096e-07
5.08452728e-10