/*--------------------------------*- C++ -*----------------------------------*\
| =========                 |                                                 |
| \\      /  F ield         | OpenFOAM: The Open Source CFD Toolbox           |
|  \\    /   O peration     | Version:  v2012                                 |
|   \\  /    A nd           | Website:  www.openfoam.com                      |
|    \\/     M anipulation  |                                                 |
\*---------------------------------------------------------------------------*/
FoamFile
{
    version     2.0;
    format      ascii;
    class       surfaceScalarField;
    location    "2.59";
    object      phiHbyA;
}
// * * * * * * * * * * * * * * * * * * * * * * * * * * * * * * * * * * * * * //

dimensions      [0 3 -1 0 0 0 0];
oriented        oriented;


internalField   nonuniform List<scalar> 
56481
(
6.6668879e-07
-3.87263677e-11
6.66718197e-07
-2.53818763e-11
6.66726147e-07
9.58575809e-11
6.66676495e-07
3.12813464e-10
6.66544972e-07
5.9489174e-10
6.6632222e-07
9.05381626e-10
6.66011287e-07
1.20886098e-09
6.65624236e-07
1.47416196e-09
6.65179313e-07
1.67640767e-09
6.64698296e-07
1.79921166e-09
6.64204035e-07
1.83620631e-09
6.63718412e-07
1.79041156e-09
6.63261111e-07
1.67111007e-09
6.62849136e-07
1.49042409e-09
6.62496352e-07
1.26262915e-09
6.62212157e-07
1.00684381e-09
6.61999165e-07
7.50145395e-10
6.61850865e-07
5.27135205e-10
6.61750583e-07
3.74209213e-10
6.61672762e-07
3.20333928e-10
6.61587237e-07
3.78693179e-10
6.61465486e-07
5.429867e-10
6.61286083e-07
7.89177765e-10
6.61037797e-07
1.08123819e-09
6.60720165e-07
1.37907763e-09
6.60342104e-07
1.64583407e-09
6.5991933e-07
1.85249623e-09
6.5947134e-07
1.97987771e-09
6.59018713e-07
2.01877878e-09
6.5858119e-07
1.96904486e-09
6.5817651e-07
1.83822643e-09
6.57819631e-07
1.64044518e-09
6.57521915e-07
1.39578416e-09
6.57289971e-07
1.12992225e-09
6.57124483e-07
8.73017438e-10
6.57018973e-07
6.57846739e-10
6.56958979e-07
5.1614217e-10
6.56923499e-07
4.72567448e-10
6.56888218e-07
5.39740121e-10
6.56829973e-07
7.14176108e-10
6.5673073e-07
9.75547395e-10
6.56580368e-07
1.29002282e-09
6.56377807e-07
1.61732137e-09
6.56130092e-07
1.91973765e-09
6.55849729e-07
2.17027252e-09
6.55551051e-07
2.35736504e-09
6.55246706e-07
2.48494822e-09
6.54945237e-07
2.56822237e-09
6.54650266e-07
2.6270248e-09
6.54361184e-07
2.67931938e-09
6.54074787e-07
2.73691557e-09
6.53787083e-07
2.80431241e-09
6.53494653e-07
2.88020253e-09
6.53195271e-07
2.9602838e-09
6.52887877e-07
3.03991856e-09
6.52572174e-07
3.11571423e-09
6.52248182e-07
3.18585968e-09
6.51915951e-07
3.249628e-09
6.51575478e-07
3.30663617e-09
6.51226773e-07
3.35630311e-09
6.50869972e-07
3.39765792e-09
6.50505433e-07
3.4294204e-09
6.50133784e-07
3.45018633e-09
6.49755933e-07
3.45858892e-09
6.49373053e-07
3.45337735e-09
6.4898658e-07
3.43342506e-09
6.48598201e-07
3.39772818e-09
6.48209848e-07
3.3453938e-09
6.47823695e-07
3.27565008e-09
6.47442145e-07
3.18785989e-09
6.47067817e-07
3.08153129e-09
6.46703536e-07
2.95633502e-09
6.46352321e-07
2.81211144e-09
6.46017382e-07
2.64886706e-09
6.45702119e-07
2.46677469e-09
6.45410123e-07
2.26616228e-09
6.4514517e-07
2.04750279e-09
6.44911176e-07
1.81140369e-09
6.44712136e-07
1.55858522e-09
6.44552014e-07
1.28985897e-09
6.44434602e-07
1.00611966e-09
6.44363042e-07
7.08431775e-10
6.44339185e-07
3.9827797e-10
6.44362061e-07
7.86861255e-11
6.44443864e-07
-2.51842894e-10
6.44588179e-07
-5.87704061e-10
6.44796249e-07
-9.2975115e-10
6.45068817e-07
-1.27628288e-09
6.45406442e-07
-1.6252069e-09
6.45809332e-07
-1.97429747e-09
6.46277126e-07
-2.32093975e-09
6.46808831e-07
-2.662257e-09
6.47402773e-07
-2.99522127e-09
6.4805657e-07
-3.31668793e-09
6.48767127e-07
-3.62344515e-09
6.49530676e-07
-3.9122855e-09
6.50342822e-07
-4.18009855e-09
6.51198606e-07
-4.42396614e-09
6.52092566e-07
-4.64125107e-09
6.53018808e-07
-4.82969045e-09
6.53971089e-07
-4.98746741e-09
6.54942904e-07
-5.11325502e-09
6.55927594e-07
-5.2062559e-09
6.5691846e-07
-5.26620916e-09
6.57908876e-07
-5.2933901e-09
6.58892414e-07
-5.2885786e-09
6.59862944e-07
-5.25303687e-09
6.6081473e-07
-5.18844726e-09
6.61742513e-07
-5.0968633e-09
6.62641564e-07
-4.9806376e-09
6.63507734e-07
-4.84235556e-09
6.64337474e-07
-4.68475384e-09
6.65127846e-07
-4.5106568e-09
6.65876516e-07
-4.32290863e-09
6.66581734e-07
-4.12430541e-09
6.67242303e-07
-3.9175486e-09
6.67857539e-07
-3.7051995e-09
6.68427219e-07
-3.48963762e-09
6.68951535e-07
-3.2730355e-09
6.69431043e-07
-3.05733479e-09
6.69866631e-07
-2.84423178e-09
6.70259471e-07
-2.63518011e-09
6.70610962e-07
-2.43137909e-09
6.70922642e-07
-2.2337551e-09
6.71196152e-07
-2.04298183e-09
6.71433337e-07
-1.85954075e-09
6.71636402e-07
-1.68376905e-09
6.71807894e-07
-1.51590917e-09
6.71950353e-07
-1.35602617e-09
6.72066102e-07
-1.2041244e-09
6.72157279e-07
-1.06013728e-09
6.72225991e-07
-9.23967206e-10
6.72274356e-07
-7.95475169e-10
6.7230446e-07
-6.7446964e-10
6.72318335e-07
-5.60744294e-10
6.7231801e-07
-4.54144829e-10
6.72305539e-07
-3.54566206e-10
6.72282956e-07
-2.61960539e-10
6.72252196e-07
-1.76431984e-10
6.72214897e-07
-9.82059537e-11
6.72171908e-07
-2.75723479e-11
6.72121829e-07
3.65813184e-11
6.72063006e-07
9.28575125e-11
6.71996472e-07
1.4198615e-10
6.71923339e-07
1.85368786e-10
6.71844617e-07
2.23602022e-10
6.71761189e-07
2.57171766e-10
6.7167383e-07
2.86570087e-10
6.71583244e-07
3.12233812e-10
6.71490076e-07
3.34539759e-10
6.7139492e-07
3.53818638e-10
6.71298317e-07
3.70362954e-10
6.71200759e-07
3.84432148e-10
6.71102688e-07
3.96255566e-10
6.71004497e-07
4.06033699e-10
6.70906526e-07
4.1394121e-10
6.70809068e-07
4.20132817e-10
6.70712371e-07
4.24748031e-10
6.70616644e-07
4.27914271e-10
6.70522065e-07
4.2975051e-10
6.70428785e-07
4.30368721e-10
6.70336933e-07
4.29875251e-10
6.70246625e-07
4.28370349e-10
6.70157959e-07
4.25949299e-10
6.70071027e-07
4.22701109e-10
6.69985907e-07
4.18708999e-10
6.69902673e-07
4.14049595e-10
6.69821388e-07
4.08793069e-10
6.69742108e-07
4.03002288e-10
6.69664883e-07
3.96733526e-10
6.69589753e-07
3.90036742e-10
6.6951675e-07
3.82955486e-10
6.69445902e-07
3.75528211e-10
6.69377226e-07
3.6778905e-10
6.69310736e-07
3.59768031e-10
6.6924644e-07
3.51492403e-10
6.69184341e-07
3.42987188e-10
6.69124441e-07
3.34275045e-10
6.6906674e-07
3.25377058e-10
6.6901124e-07
3.16312352e-10
6.6895794e-07
3.07098191e-10
6.68906846e-07
2.97748928e-10
6.68857964e-07
2.88276026e-10
6.68811307e-07
2.78685609e-10
6.68766896e-07
2.68982236e-10
6.68724768e-07
2.5913608e-10
6.68684957e-07
2.49216431e-10
6.68647642e-07
2.38713785e-10
6.68612606e-07
2.29577666e-10
2.12067474e-10
6.66695322e-07
-6.7431389e-11
6.66747482e-07
-7.77238426e-11
6.667849e-07
5.85552122e-11
6.66767514e-07
3.30483012e-10
6.66661995e-07
7.00817388e-10
6.66451714e-07
1.11616315e-09
6.66137139e-07
1.52403933e-09
6.65731399e-07
1.8806035e-09
6.65255507e-07
2.15307371e-09
6.64734889e-07
2.32064917e-09
6.64196569e-07
2.37537137e-09
6.63666721e-07
2.32111092e-09
6.63169113e-07
2.16955538e-09
6.62724534e-07
1.93580687e-09
6.62350284e-07
1.63763542e-09
6.6205856e-07
1.29926395e-09
6.61853549e-07
9.55787903e-10
6.61728469e-07
6.52785596e-10
6.61664442e-07
4.38755473e-10
6.61632399e-07
3.52867738e-10
6.61597579e-07
4.14000242e-10
6.61525263e-07
6.15811292e-10
6.61386841e-07
9.28143173e-10
6.61164528e-07
1.30412533e-09
6.60853676e-07
1.69052306e-09
6.60462336e-07
2.0377756e-09
6.60008508e-07
2.30691955e-09
6.59516362e-07
2.47260058e-09
6.59012602e-07
2.52308818e-09
6.5852361e-07
2.45855119e-09
6.5807351e-07
2.28879968e-09
6.5768287e-07
2.03151206e-09
6.57367561e-07
1.71147129e-09
6.57137379e-07
1.36043378e-09
6.56994178e-07
1.01649808e-09
6.56930459e-07
7.21796145e-10
6.56929147e-07
5.17635792e-10
6.56964343e-07
4.37503572e-10
6.57004515e-07
4.99653965e-10
6.57017459e-07
7.01281293e-10
6.56976347e-07
1.01668228e-09
6.56864605e-07
1.40176525e-09
6.56678544e-07
1.80335792e-09
6.56426952e-07
2.17128424e-09
6.56127667e-07
2.46949354e-09
6.55802248e-07
2.68270149e-09
6.55470419e-07
2.81667869e-09
6.55145922e-07
2.89260585e-09
6.54834818e-07
2.93800131e-09
6.5453629e-07
2.97770715e-09
6.54245139e-07
3.02791666e-09
6.5395473e-07
3.09456148e-09
6.53659315e-07
3.17545211e-09
6.53355148e-07
3.26427977e-09
6.53040491e-07
3.35440397e-09
6.52714938e-07
3.44109519e-09
6.52378642e-07
3.52198828e-09
6.52031774e-07
3.59633406e-09
6.51674353e-07
3.66390311e-09
6.5130633e-07
3.72418182e-09
6.50927773e-07
3.77608267e-09
6.5053902e-07
3.81805381e-09
6.50140758e-07
3.84834404e-09
6.49734013e-07
3.86524434e-09
6.49320112e-07
3.86720375e-09
6.48900694e-07
3.85278665e-09
6.4847768e-07
3.82070157e-09
6.48053269e-07
3.76977999e-09
6.47629925e-07
3.69898505e-09
6.47210363e-07
3.60742721e-09
6.46797535e-07
3.49437719e-09
6.46394612e-07
3.35928645e-09
6.46004965e-07
3.20179499e-09
6.45632146e-07
3.0217287e-09
6.45279864e-07
2.81910291e-09
6.44951957e-07
2.59411654e-09
6.44652365e-07
2.34713985e-09
6.44385097e-07
2.07871048e-09
6.44154174e-07
1.78953538e-09
6.43963484e-07
1.48056178e-09
6.43816795e-07
1.15280057e-09
6.43718446e-07
8.06739825e-10
6.43673082e-07
4.43562221e-10
6.43688052e-07
6.363495e-11
6.43760398e-07
-3.24347466e-10
6.43896338e-07
-7.23849843e-10
6.44098224e-07
-1.13192301e-09
6.44368314e-07
-1.5467227e-09
6.44708085e-07
-1.96539243e-09
6.45118196e-07
-2.38489654e-09
6.45598653e-07
-2.80196132e-09
6.46148743e-07
-3.21298967e-09
6.46766954e-07
-3.61415362e-09
6.47450947e-07
-4.00148147e-09
6.48197555e-07
-4.37093164e-09
6.49002799e-07
-4.71848182e-09
6.49861921e-07
-5.04024398e-09
6.50769447e-07
-5.3325785e-09
6.51719251e-07
-5.59219858e-09
6.5270465e-07
-5.81628226e-09
6.53718512e-07
-6.00256246e-09
6.54753382e-07
-6.14938657e-09
6.55801617e-07
-6.25577188e-09
6.56855539e-07
-6.32142013e-09
6.57907582e-07
-6.34671976e-09
6.58950437e-07
-6.33270648e-09
6.59977181e-07
-6.28103106e-09
6.60981394e-07
-6.19387669e-09
6.61957247e-07
-6.07389074e-09
6.62899572e-07
-5.92408842e-09
6.63803912e-07
-5.74776396e-09
6.64666536e-07
-5.54838482e-09
6.65484448e-07
-5.32950868e-09
6.66255365e-07
-5.09469706e-09
6.66977692e-07
-4.84743057e-09
6.67650468e-07
-4.5910515e-09
6.68273325e-07
-4.32870891e-09
6.68846416e-07
-4.06330979e-09
6.69370363e-07
-3.79749203e-09
6.69846185e-07
-3.53359758e-09
6.70275234e-07
-3.27365535e-09
6.7065913e-07
-3.01938893e-09
6.70999716e-07
-2.77222108e-09
6.7129905e-07
-2.53329185e-09
6.71559379e-07
-2.30346666e-09
6.71783078e-07
-2.08335256e-09
6.71972562e-07
-1.8733285e-09
6.72130224e-07
-1.67361359e-09
6.72258537e-07
-1.48435232e-09
6.7236013e-07
-1.30570333e-09
6.72437365e-07
-1.13733174e-09
6.72492452e-07
-9.78983594e-10
6.72527543e-07
-8.30467078e-10
6.72544726e-07
-6.91528025e-10
6.72546045e-07
-5.61915888e-10
6.72533434e-07
-4.41363596e-10
6.72508575e-07
-3.29516915e-10
6.72472831e-07
-2.26013791e-10
6.72427146e-07
-1.30542145e-10
6.72372151e-07
-4.30216394e-11
6.72309513e-07
3.52418155e-11
6.72241353e-07
1.04901132e-10
6.72167541e-07
1.66834292e-10
6.72088311e-07
2.21404859e-10
6.72004251e-07
2.69627521e-10
6.71915931e-07
3.1212416e-10
6.71823964e-07
3.49345363e-10
6.71728976e-07
3.81770051e-10
6.71631559e-07
4.09865188e-10
6.71532263e-07
4.34051414e-10
6.71431592e-07
4.54705579e-10
6.71330004e-07
4.72165512e-10
6.71227915e-07
4.86733557e-10
6.71125699e-07
4.9868028e-10
6.71023692e-07
5.08246095e-10
6.70922189e-07
5.15643757e-10
6.70821453e-07
5.21064003e-10
6.7072171e-07
5.24679896e-10
6.70623158e-07
5.26649306e-10
6.70525968e-07
5.27118445e-10
6.70430285e-07
5.26223261e-10
6.70336235e-07
5.24091097e-10
6.70243926e-07
5.20840247e-10
6.70153448e-07
5.1658159e-10
6.70064882e-07
5.11417344e-10
6.69978293e-07
5.05442069e-10
6.6989374e-07
4.98742123e-10
6.6981127e-07
4.91396233e-10
6.69730926e-07
4.8347482e-10
6.69652742e-07
4.75041097e-10
6.69576746e-07
4.661515e-10
6.69502959e-07
4.5685554e-10
6.69431399e-07
4.47197219e-10
6.69362076e-07
4.3721572e-10
6.69294997e-07
4.26945422e-10
6.69230166e-07
4.16417238e-10
6.69167583e-07
4.05659098e-10
6.69107247e-07
3.94695668e-10
6.69049154e-07
3.83549257e-10
6.68993303e-07
3.72239393e-10
6.68939689e-07
3.6078305e-10
6.6888831e-07
3.49193571e-10
6.68839168e-07
3.37481026e-10
6.68792261e-07
3.25649653e-10
6.68747592e-07
3.13704517e-10
6.68705166e-07
3.01611863e-10
6.6866494e-07
2.89483219e-10
6.68626976e-07
2.76725813e-10
6.68590553e-07
2.6597875e-10
2.45530571e-10
6.66691107e-07
-9.17656492e-11
6.66736829e-07
-1.23545378e-10
6.66765936e-07
2.89459388e-11
6.66738228e-07
3.57850592e-10
6.66625642e-07
8.12968669e-10
6.66413418e-07
1.32784347e-09
6.66101544e-07
1.83528729e-09
6.65701625e-07
2.27982859e-09
6.65233068e-07
2.6208776e-09
6.64719849e-07
2.83306862e-09
6.64187824e-07
2.90657242e-09
6.63662364e-07
2.84574213e-09
6.63166738e-07
2.66436335e-09
6.62721401e-07
2.38035089e-09
6.62343438e-07
2.01484343e-09
6.62045097e-07
1.59689663e-09
6.61831149e-07
1.16907916e-09
6.61695988e-07
7.8734256e-10
6.6162203e-07
5.12153161e-10
6.61580612e-07
3.93754587e-10
6.6153646e-07
4.57641374e-10
6.61455232e-07
6.96530785e-10
6.61309955e-07
1.07290141e-09
6.61084652e-07
1.52889811e-09
6.60775531e-07
1.99911374e-09
6.60390164e-07
2.42262253e-09
6.59945161e-07
2.75141903e-09
6.59463004e-07
2.95427821e-09
6.58968868e-07
3.01677296e-09
6.58488015e-07
2.93898716e-09
6.58043865e-07
2.73256771e-09
6.57656584e-07
2.41845091e-09
6.57341838e-07
2.02591552e-09
6.57109445e-07
1.59256707e-09
6.56961821e-07
1.16390444e-09
6.56892557e-07
7.90887536e-10
6.56885562e-07
5.24503108e-10
6.56915887e-07
4.07087799e-10
6.56953208e-07
4.62268054e-10
6.56966881e-07
6.87551084e-10
6.56931169e-07
1.05233762e-09
6.5682974e-07
1.50313698e-09
6.56658007e-07
1.97503486e-09
6.56422916e-07
2.40632183e-09
6.56140134e-07
2.75222398e-09
6.55829369e-07
2.99341901e-09
6.55509241e-07
3.13676435e-09
6.55193265e-07
3.20854641e-09
6.54887983e-07
3.24325415e-09
6.54593428e-07
3.27223939e-09
6.54305242e-07
3.31608212e-09
6.54017367e-07
3.38241861e-09
6.5372425e-07
3.46854985e-09
6.53422029e-07
3.56647884e-09
6.53108664e-07
3.66774117e-09
6.52783419e-07
3.76630523e-09
6.52446171e-07
3.85919223e-09
6.52096912e-07
3.94553964e-09
6.51735555e-07
4.02519404e-09
6.51361997e-07
4.09766173e-09
6.50976273e-07
4.16171536e-09
6.50578704e-07
4.21551953e-09
6.50169967e-07
4.25696423e-09
6.49751125e-07
4.28395773e-09
6.49323619e-07
4.29456924e-09
6.48889207e-07
4.2870461e-09
6.4844995e-07
4.25979733e-09
6.48008194e-07
4.21136658e-09
6.47566562e-07
4.14044135e-09
6.47127936e-07
4.04587301e-09
6.46695439e-07
3.92669358e-09
6.46272406e-07
3.78213871e-09
6.45862369e-07
3.61165477e-09
6.45469033e-07
3.41489318e-09
6.45096261e-07
3.1917125e-09
6.44748054e-07
2.94217201e-09
6.44428535e-07
2.66652088e-09
6.44141926e-07
2.36519897e-09
6.43892527e-07
2.03883372e-09
6.43684791e-07
1.68822054e-09
6.43523283e-07
1.3142597e-09
6.43411919e-07
9.18092731e-10
6.43353298e-07
5.0221246e-10
6.43347117e-07
6.98407967e-11
6.4340536e-07
-3.82498271e-10
6.43529132e-07
-8.47491494e-10
6.43721652e-07
-1.32425223e-09
6.43984948e-07
-1.80978142e-09
6.44320753e-07
-2.3009158e-09
6.44730216e-07
-2.79402836e-09
6.45213705e-07
-3.28506768e-09
6.45770781e-07
-3.76963218e-09
6.46400151e-07
-4.24303784e-09
6.47099612e-07
-4.70040579e-09
6.47866029e-07
-5.13676244e-09
6.48695333e-07
-5.54715176e-09
6.49582543e-07
-5.92677659e-09
6.50521824e-07
-6.27114078e-09
6.51506561e-07
-6.57618081e-09
6.52529473e-07
-6.83840714e-09
6.53582743e-07
-7.05501997e-09
6.54658178e-07
-7.22398834e-09
6.55747376e-07
-7.34412215e-09
6.56841905e-07
-7.41509263e-09
6.57933478e-07
-7.43743454e-09
6.59014121e-07
-7.41249532e-09
6.60076323e-07
-7.34238945e-09
6.61113165e-07
-7.22989096e-09
6.62118422e-07
-7.07834135e-09
6.63086637e-07
-6.89152418e-09
6.64013172e-07
-6.67354891e-09
6.64894218e-07
-6.42871622e-09
6.65726799e-07
-6.16141174e-09
6.66508738e-07
-5.87599795e-09
6.67238614e-07
-5.57671035e-09
6.67915704e-07
-5.26758761e-09
6.68539912e-07
-4.95240655e-09
6.69111694e-07
-4.63462579e-09
6.69631986e-07
-4.31736007e-09
6.70102129e-07
-4.00335854e-09
6.70523806e-07
-3.69499122e-09
6.7089898e-07
-3.39426006e-09
6.7122983e-07
-3.10280485e-09
6.71518692e-07
-2.82192164e-09
6.71768007e-07
-2.55258121e-09
6.71980303e-07
-2.29547668e-09
6.72158186e-07
-2.05106787e-09
6.72304299e-07
-1.81960807e-09
6.72421215e-07
-1.60117459e-09
6.72511278e-07
-1.39569701e-09
6.72576943e-07
-1.20295087e-09
6.72620628e-07
-1.02265049e-09
6.72644609e-07
-8.54455837e-10
6.72650921e-07
-6.97872778e-10
6.72641283e-07
-5.52334405e-10
6.72617844e-07
-4.18011643e-10
6.72582652e-07
-2.94443279e-10
6.72537735e-07
-1.81239528e-10
6.72485228e-07
-7.81932536e-11
6.72426831e-07
1.51909301e-11
6.72361054e-07
1.00865341e-10
6.72288615e-07
1.77200726e-10
6.7221002e-07
2.45273643e-10
6.72125842e-07
3.05420006e-10
6.72036958e-07
3.58343803e-10
6.71944136e-07
4.04775061e-10
6.71848018e-07
4.45287233e-10
6.71749212e-07
4.80399624e-10
6.71648287e-07
5.10611204e-10
6.71545777e-07
5.36383087e-10
6.71442171e-07
5.58133517e-10
6.71337919e-07
5.76240935e-10
6.71233431e-07
5.9104832e-10
6.71129073e-07
6.02868196e-10
6.71025169e-07
6.11984277e-10
6.70922e-07
6.18651987e-10
6.70819806e-07
6.23102124e-10
6.70718791e-07
6.25543803e-10
6.70619129e-07
6.26166038e-10
6.70520966e-07
6.25141265e-10
6.70424428e-07
6.22626979e-10
6.7032962e-07
6.18768221e-10
6.70236637e-07
6.13697757e-10
6.70145558e-07
6.0753867e-10
6.70056455e-07
6.00403476e-10
6.69969388e-07
5.92395816e-10
6.6988441e-07
5.8361023e-10
6.69801569e-07
5.74133125e-10
6.697209e-07
5.64042126e-10
6.69642437e-07
5.53407398e-10
6.69566204e-07
5.4229208e-10
6.69492219e-07
5.30751961e-10
6.69420494e-07
5.18836922e-10
6.69351038e-07
5.06591491e-10
6.69283851e-07
4.94054605e-10
6.69218935e-07
4.81260955e-10
6.69156283e-07
4.68241386e-10
6.6909589e-07
4.55022509e-10
6.69037749e-07
4.41627766e-10
6.68981852e-07
4.28077041e-10
6.68928193e-07
4.14387094e-10
6.68876764e-07
4.00570562e-10
6.68827559e-07
3.86636695e-10
6.68780574e-07
3.72588807e-10
6.68735803e-07
3.58432373e-10
6.68693248e-07
3.44128826e-10
6.68652886e-07
3.2980599e-10
6.68614826e-07
3.14761897e-10
6.6857878e-07
3.01946041e-10
2.77725371e-10
6.6669791e-07
-1.22850695e-10
6.66753942e-07
-1.79605608e-10
6.66792297e-07
-9.06325931e-12
6.66778774e-07
3.71679218e-10
6.66676509e-07
9.15584052e-10
6.66468064e-07
1.53668412e-09
6.66152294e-07
2.1515014e-09
6.65740933e-07
2.69168889e-09
6.65254387e-07
3.10796392e-09
6.64718396e-07
3.36962421e-09
6.64161157e-07
3.46439179e-09
6.6361071e-07
3.39677808e-09
6.63093043e-07
3.18261943e-09
6.62631077e-07
2.84289818e-09
6.62243796e-07
2.40269142e-09
6.6194446e-07
1.89678181e-09
6.61737661e-07
1.37640293e-09
6.61616358e-07
9.09144684e-10
6.61560819e-07
5.68166386e-10
6.61540931e-07
4.14099219e-10
6.61520834e-07
4.78172416e-10
6.61463884e-07
7.53891836e-10
6.61338921e-07
1.19826462e-09
6.61125861e-07
1.74234885e-09
6.60818416e-07
2.30693334e-09
6.60423793e-07
2.81760047e-09
6.59960094e-07
3.21545283e-09
6.59452584e-07
3.46210113e-09
6.58929942e-07
3.53971115e-09
6.58421162e-07
3.44804556e-09
6.57953312e-07
3.20067965e-09
6.57549861e-07
2.82214867e-09
6.57229121e-07
2.34688618e-09
6.57002432e-07
1.8194704e-09
6.56872118e-07
1.29441388e-09
6.5682992e-07
8.33254029e-10
6.56857132e-07
4.97423925e-10
6.56926421e-07
3.37898308e-10
6.570048e-07
3.83973088e-10
6.57058196e-07
6.34255272e-10
6.57057182e-07
1.05347934e-09
6.56982205e-07
1.57826564e-09
6.56827179e-07
2.1302291e-09
6.56599669e-07
2.63401382e-09
6.56317468e-07
3.03461765e-09
6.5600304e-07
3.30804894e-09
6.55677617e-07
3.46239677e-09
6.5535665e-07
3.52973082e-09
6.55047706e-07
3.55241985e-09
6.54750983e-07
3.56918806e-09
6.5446167e-07
3.60562628e-09
6.54172938e-07
3.67138843e-09
6.53878425e-07
3.76330539e-09
6.53573593e-07
3.87156071e-09
6.53255915e-07
3.98567716e-09
6.5292433e-07
4.0981553e-09
6.52578502e-07
4.2052934e-09
6.52218265e-07
4.30605713e-09
6.51843408e-07
4.40033772e-09
6.5145373e-07
4.48763408e-09
6.51049201e-07
4.56654328e-09
6.50630125e-07
4.63490025e-09
6.50197213e-07
4.69018372e-09
6.49751605e-07
4.72987704e-09
6.49294837e-07
4.75164802e-09
6.48828815e-07
4.75337985e-09
6.48355779e-07
4.73314242e-09
6.47878293e-07
4.68915814e-09
6.47399225e-07
4.61981028e-09
6.46921725e-07
4.52366495e-09
6.46449211e-07
4.39949052e-09
6.45985337e-07
4.24628419e-09
6.45533968e-07
4.06328085e-09
6.45099155e-07
3.84994803e-09
6.44685102e-07
3.60598946e-09
6.4429614e-07
3.33133898e-09
6.43936696e-07
3.02614882e-09
6.43611266e-07
2.69079033e-09
6.43324385e-07
2.32585027e-09
6.43080579e-07
1.93213441e-09
6.42884226e-07
1.51068991e-09
6.42739576e-07
1.06278427e-09
6.42651849e-07
5.89942514e-10
6.42628611e-07
9.30642632e-11
6.42668844e-07
-4.2280143e-10
6.42778474e-07
-9.57226274e-10
6.42960744e-07
-1.50667467e-09
6.43218752e-07
-2.06798035e-09
6.4355483e-07
-2.63722479e-09
6.43970566e-07
-3.21003678e-09
6.44466769e-07
-3.78158468e-09
6.45043362e-07
-4.34658156e-09
6.45699285e-07
-4.89935696e-09
6.46432412e-07
-5.43397056e-09
6.47239515e-07
-5.94434126e-09
6.4811624e-07
-6.42438991e-09
6.49057134e-07
-6.86821787e-09
6.50055702e-07
-7.27028797e-09
6.51104506e-07
-7.62559237e-09
6.52195298e-07
-7.92983111e-09
6.53319185e-07
-8.17955994e-09
6.5446682e-07
-8.37229392e-09
6.55628616e-07
-8.50659967e-09
6.56794957e-07
-8.58212356e-09
6.57956423e-07
-8.59959336e-09
6.59103989e-07
-8.56075277e-09
6.60229211e-07
-8.46829699e-09
6.61324378e-07
-8.32573292e-09
6.6238263e-07
-8.13725505e-09
6.63398043e-07
-7.90758239e-09
6.64365678e-07
-7.64180704e-09
6.65281584e-07
-7.34522357e-09
6.6614279e-07
-7.02319402e-09
6.66947258e-07
-6.68101397e-09
6.67693815e-07
-6.32378718e-09
6.68382079e-07
-5.95634236e-09
6.6901237e-07
-5.58315853e-09
6.69585617e-07
-5.20830288e-09
6.70103262e-07
-4.83540561e-09
6.70567173e-07
-4.46764043e-09
6.70979554e-07
-4.10771442e-09
6.71342867e-07
-3.75788746e-09
6.71659763e-07
-3.41998853e-09
6.71933027e-07
-3.09544789e-09
6.72165534e-07
-2.78532553e-09
6.72360198e-07
-2.49035628e-09
6.72519928e-07
-2.21099037e-09
6.72647579e-07
-1.94743106e-09
6.72745934e-07
-1.69968091e-09
6.72817688e-07
-1.46758292e-09
6.72865453e-07
-1.25082943e-09
6.72891703e-07
-1.04899573e-09
6.72898767e-07
-8.61594383e-10
6.72888946e-07
-6.88108945e-10
6.72864607e-07
-5.28031573e-10
6.72827477e-07
-3.80890329e-10
6.72779335e-07
-2.46276597e-10
6.72721127e-07
-1.22976607e-10
6.72652521e-07
-9.51424046e-12
6.72576331e-07
9.15118045e-11
6.72494139e-07
1.83150554e-10
6.72406543e-07
2.64897736e-10
6.72314381e-07
3.3754248e-10
6.72218146e-07
4.01764958e-10
6.721184e-07
4.58202178e-10
6.72015759e-07
5.0753048e-10
6.71910791e-07
5.50371262e-10
6.71804019e-07
5.87288513e-10
6.71695933e-07
6.18814649e-10
6.71586985e-07
6.45449009e-10
6.71477583e-07
6.67652968e-10
6.71368091e-07
6.85848119e-10
6.71258837e-07
7.00416171e-10
6.71150113e-07
7.11702649e-10
6.71042184e-07
7.20020055e-10
6.70935289e-07
7.25650229e-10
6.70829641e-07
7.28849276e-10
6.70725429e-07
7.29851001e-10
6.70622818e-07
7.28868461e-10
6.7052195e-07
7.26097343e-10
6.70422945e-07
7.21716905e-10
6.70325904e-07
7.15892006e-10
6.70230909e-07
7.08772792e-10
6.70138027e-07
7.00497502e-10
6.70047314e-07
6.91191483e-10
6.69958812e-07
6.80969282e-10
6.69872558e-07
6.69934564e-10
6.69788577e-07
6.58181436e-10
6.69706891e-07
6.4579391e-10
6.69627513e-07
6.32847604e-10
6.69550455e-07
6.19410361e-10
6.69475723e-07
6.05541961e-10
6.69403319e-07
5.91295786e-10
6.69333244e-07
5.76719447e-10
6.69265495e-07
5.61854493e-10
6.69200066e-07
5.46737902e-10
6.69136951e-07
5.31402498e-10
6.69076141e-07
5.15876477e-10
6.69017626e-07
5.00184596e-10
6.68961394e-07
4.84347726e-10
6.68907436e-07
4.68383396e-10
6.68855737e-07
4.52304752e-10
6.68806286e-07
4.36121634e-10
6.68759069e-07
4.19837925e-10
6.68714068e-07
4.03462081e-10
6.68671272e-07
3.86954063e-10
6.68630621e-07
3.70479669e-10
6.68592163e-07
3.53253948e-10
6.68555233e-07
3.38842696e-10
3.11677442e-10
6.66694445e-07
-1.50603173e-10
6.66748649e-07
-2.33924606e-10
6.66792536e-07
-5.30877649e-11
6.66776832e-07
3.87232689e-10
6.66672942e-07
1.01930069e-09
6.66463028e-07
1.74637085e-09
6.66145732e-07
2.46854359e-09
6.65732442e-07
3.10470474e-09
6.65243218e-07
3.59689154e-09
6.6470348e-07
3.90904556e-09
6.64141188e-07
4.02635642e-09
6.63584269e-07
3.95336347e-09
6.63058747e-07
3.70780723e-09
6.62587744e-07
3.31356501e-09
6.62190662e-07
2.79943772e-09
6.61881471e-07
2.20563504e-09
6.61665818e-07
1.59172024e-09
6.61537995e-07
1.0366337e-09
6.6147928e-07
6.26551719e-10
6.61458822e-07
4.3423351e-10
6.61438249e-07
4.98445269e-10
6.61379837e-07
8.12035001e-10
6.61253259e-07
1.32459439e-09
6.61039565e-07
1.95581122e-09
6.60732941e-07
2.61334158e-09
6.60340241e-07
3.21009747e-09
6.59878757e-07
3.6767455e-09
6.59372937e-07
3.96773574e-09
6.58850923e-07
4.06154345e-09
6.58341533e-07
3.95725718e-09
6.57871923e-07
3.67011432e-09
6.57465777e-07
3.22812026e-09
6.57141744e-07
2.67074539e-09
6.56911888e-07
2.04915306e-09
6.56780086e-07
1.42604556e-09
6.56740376e-07
8.72806013e-10
6.56775508e-07
4.62163923e-10
6.56857576e-07
2.5573827e-10
6.56951367e-07
2.90099943e-10
6.57020825e-07
5.64690514e-10
6.57035658e-07
1.03850095e-09
6.56976345e-07
1.63739824e-09
6.5683699e-07
2.2693775e-09
6.56624739e-07
2.84604035e-09
6.56356717e-07
3.30239913e-09
6.56054996e-07
3.60951569e-09
6.55740819e-07
3.77630662e-09
6.55429921e-07
3.84035119e-09
6.55130213e-07
3.85183951e-09
6.5484211e-07
3.85699374e-09
6.54560802e-07
3.88662667e-09
6.54279269e-07
3.95260452e-09
6.53990842e-07
4.05140668e-09
6.53690636e-07
4.17143162e-09
6.53375804e-07
4.30016511e-09
6.53045016e-07
4.42859122e-09
6.52697713e-07
4.55223667e-09
6.52333549e-07
4.66985589e-09
6.51952164e-07
4.78135188e-09
6.5155324e-07
4.88618299e-09
6.51136673e-07
4.98273215e-09
6.50702734e-07
5.0684593e-09
6.50252156e-07
5.14038202e-09
6.49786146e-07
5.19550814e-09
6.49306363e-07
5.23105524e-09
6.48814879e-07
5.24449319e-09
6.48314147e-07
5.23351031e-09
6.47806977e-07
5.19597232e-09
6.4729651e-07
5.12993206e-09
6.46786185e-07
5.03365619e-09
6.46279708e-07
4.90564833e-09
6.45781011e-07
4.74467793e-09
6.45294219e-07
4.54978652e-09
6.44823623e-07
4.32027664e-09
6.44373655e-07
4.05571016e-09
6.4394887e-07
3.75589753e-09
6.43553931e-07
3.42088317e-09
6.43193594e-07
3.05094716e-09
6.42872684e-07
2.64660417e-09
6.42596083e-07
2.20860608e-09
6.42368716e-07
1.73795564e-09
6.42195456e-07
1.23597393e-09
6.42080918e-07
7.04442382e-10
6.42028194e-07
1.4577386e-10
6.42044475e-07
-4.3905545e-10
6.42133475e-07
-1.04617193e-09
6.42299402e-07
-1.67251215e-09
6.42545728e-07
-2.31418639e-09
6.42875422e-07
-2.96676967e-09
6.43290748e-07
-3.62518387e-09
6.43793095e-07
-4.28372345e-09
6.4438286e-07
-4.93611214e-09
6.45059339e-07
-5.57557442e-09
6.45820615e-07
-6.19495961e-09
6.46663482e-07
-6.78689841e-09
6.47583406e-07
-7.34398101e-09
6.48574521e-07
-7.85898119e-09
6.49629692e-07
-8.32508817e-09
6.50740614e-07
-8.73612646e-09
6.51897974e-07
-9.08678814e-09
6.53091657e-07
-9.37282737e-09
6.54310988e-07
-9.59119905e-09
6.55545001e-07
-9.7401773e-09
6.56782713e-07
-9.81939209e-09
6.58013394e-07
-9.82982712e-09
6.59226824e-07
-9.77373308e-09
6.60413514e-07
-9.65453573e-09
6.61564885e-07
-9.47665339e-09
6.62673406e-07
-9.24532999e-09
6.63732688e-07
-8.96642339e-09
6.64737524e-07
-8.64620871e-09
6.65683888e-07
-8.29116312e-09
6.66568904e-07
-7.90779524e-09
6.67390774e-07
-7.50248069e-09
6.68148688e-07
-7.08131227e-09
6.68842724e-07
-6.65000228e-09
6.69473724e-07
-6.21379862e-09
6.70043184e-07
-5.7774184e-09
6.70553133e-07
-5.34502617e-09
6.71006024e-07
-4.92022084e-09
6.71404639e-07
-4.50603413e-09
6.71751989e-07
-4.10496071e-09
6.72051246e-07
-3.7189846e-09
6.72305665e-07
-3.34962233e-09
6.72518529e-07
-2.99796154e-09
6.72693102e-07
-2.66471674e-09
6.72832588e-07
-2.35027975e-09
6.72940103e-07
-2.05476468e-09
6.73018647e-07
-1.77805814e-09
6.73071078e-07
-1.51986094e-09
6.73100108e-07
-1.27972024e-09
6.73108305e-07
-1.05706707e-09
6.73098071e-07
-8.51246193e-10
6.73071593e-07
-6.61530839e-10
6.73030804e-07
-4.87157137e-10
6.72977359e-07
-3.27377393e-10
6.72912651e-07
-1.81525668e-10
6.72838634e-07
-4.89506528e-11
6.72758493e-07
7.06158921e-11
6.72671476e-07
1.78491132e-10
6.72579213e-07
2.75375735e-10
6.72482153e-07
3.61915139e-10
6.72380962e-07
4.38687757e-10
6.72276293e-07
5.06384828e-10
6.72168746e-07
5.65698269e-10
6.72058902e-07
6.17321226e-10
6.71947303e-07
6.61916528e-10
6.71834438e-07
7.00097502e-10
6.7172076e-07
7.32435819e-10
6.71606688e-07
7.59463745e-10
6.7149261e-07
7.81674007e-10
6.7137888e-07
7.99520431e-10
6.71265821e-07
8.13419602e-10
6.71153714e-07
8.23754822e-10
6.71042804e-07
8.3087732e-10
6.70933298e-07
8.35105693e-10
6.70825369e-07
8.36728903e-10
6.70719164e-07
8.36008903e-10
6.70614805e-07
8.331821e-10
6.70512395e-07
8.28463405e-10
6.7041202e-07
8.2204781e-10
6.70313757e-07
8.14113402e-10
6.70217666e-07
8.04821579e-10
6.70123802e-07
7.94320543e-10
6.70032209e-07
7.82744328e-10
6.69942923e-07
7.70215303e-10
6.69855975e-07
7.5684422e-10
6.69771387e-07
7.427318e-10
6.69689176e-07
7.27968164e-10
6.69609353e-07
7.12634714e-10
6.69531924e-07
6.96804753e-10
6.69456889e-07
6.80543027e-10
6.69384245e-07
6.63907453e-10
6.69313983e-07
6.46949645e-10
6.69246093e-07
6.29714422e-10
6.69180561e-07
6.12241352e-10
6.6911737e-07
5.94565154e-10
6.69056505e-07
5.76715163e-10
6.68997947e-07
5.58716732e-10
6.68941679e-07
5.40590879e-10
6.68887683e-07
5.22355062e-10
6.68835943e-07
5.04022274e-10
6.68786439e-07
4.85602473e-10
6.68739156e-07
4.67099996e-10
6.68694072e-07
4.48525377e-10
6.68651171e-07
4.29836081e-10
6.68610411e-07
4.11217207e-10
6.68571881e-07
3.91775151e-10
6.68535238e-07
3.7541729e-10
3.44566018e-10
6.66697533e-07
-1.81328803e-10
6.66754803e-07
-2.91260968e-10
6.66796561e-07
-9.48497751e-11
6.66784465e-07
3.99407245e-10
6.666825e-07
1.12134362e-09
6.66472233e-07
1.95670922e-09
6.66151443e-07
2.78941335e-09
6.65731056e-07
3.52518849e-09
6.65231201e-07
4.09685222e-09
6.64678013e-07
4.46234102e-09
6.64100725e-07
4.6037527e-09
6.6352888e-07
4.52531898e-09
6.62990195e-07
4.24660334e-09
6.62509343e-07
3.79453141e-09
6.62106856e-07
3.20204475e-09
6.61797134e-07
2.51548668e-09
6.61585324e-07
1.80367425e-09
6.61464252e-07
1.15786444e-09
6.61413401e-07
6.77572347e-10