/*--------------------------------*- C++ -*----------------------------------*\
| =========                 |                                                 |
| \\      /  F ield         | OpenFOAM: The Open Source CFD Toolbox           |
|  \\    /   O peration     | Version:  v2012                                 |
|   \\  /    A nd           | Website:  www.openfoam.com                      |
|    \\/     M anipulation  |                                                 |
\*---------------------------------------------------------------------------*/
FoamFile
{
    version     2.0;
    format      ascii;
    class       volScalarField;
    location    "2.59";
    object      rAU;
}
// * * * * * * * * * * * * * * * * * * * * * * * * * * * * * * * * * * * * * //

dimensions      [0 0 1 0 0 0 0];


internalField   nonuniform List<scalar> 
28416
(
0.000457729736
0.000457735895
0.000457734781
0.000457733004
0.000457731099
0.000457729435
0.000457728312
0.000457727952
0.000457728492
0.000457729974
0.000457732333
0.000457735425
0.000457739053
0.000457743007
0.000457747074
0.00045775102
0.000457754574
0.000457757442
0.000457759379
0.000457760256
0.000457760121
0.00045775919
0.000457757801
0.000457756352
0.000457755223
0.000457754713
0.000457755014
0.000457756207
0.000457758274
0.000457761113
0.000457764556
0.000457768384
0.000457772336
0.000457776123
0.000457779446
0.000457782024
0.000457783633
0.000457784157
0.000457783611
0.000457782151
0.000457780071
0.00045777775
0.000457775581
0.000457773892
0.000457772877
0.000457772572
0.000457772874
0.000457773594
0.000457774522
0.000457775492
0.000457776406
0.000457777243
0.000457778032
0.000457778826
0.000457779674
0.000457780611
0.000457781654
0.000457782811
0.000457784086
0.000457785486
0.000457787019
0.000457788697
0.000457790529
0.000457792524
0.000457794688
0.000457797024
0.000457799532
0.000457802211
0.000457805053
0.000457808055
0.000457811205
0.000457814488
0.000457817892
0.000457821396
0.000457824979
0.000457828618
0.000457832285
0.000457835952
0.000457839589
0.000457843166
0.000457846652
0.000457850025
0.000457853264
0.000457856356
0.000457855927
0.000457853656
0.00045785101
0.000457847996
0.000457844617
0.000457840885
0.000457836811
0.000457832415
0.000457827716
0.000457822742
0.000457817524
0.000457812096
0.000457806493
0.000457800758
0.000457794931
0.000457789052
0.000457783167
0.000457777314
0.000457771533
0.000457765862
0.000457760336
0.000457754986
0.000457749842
0.000457744926
0.000457740258
0.000457735854
0.000457731728
0.000457727884
0.000457724326
0.000457721058
0.000457718075
0.000457715371
0.000457712941
0.000457710774
0.000457708859
0.000457707187
0.000457705743
0.000457704515
0.00045770349
0.000457702657
0.000457702002
0.000457701514
0.000457701183
0.000457700993
0.00045770093
0.000457700983
0.000457701137
0.000457701382
0.000457701707
0.000457702102
0.000457702556
0.00045770306
0.000457703603
0.000457704173
0.00045770476
0.000457705352
0.000457705938
0.000457706317
0.000457706215
0.000457706085
0.000457706048
0.000457706091
0.000457706206
0.000457706382
0.000457706614
0.000457706891
0.000457707209
0.000457707563
0.000457707945
0.000457708351
0.000457708779
0.000457709224
0.000457709683
0.000457710154
0.000457710634
0.000457711122
0.000457711614
0.00045771211
0.000457712608
0.000457713107
0.000457713605
0.000457714101
0.000457714592
0.00045771508
0.000457715563
0.000457716038
0.000457716508
0.000457716969
0.000457717422
0.000457717868
0.000457718304
0.00045771873
0.000457719148
0.000457719556
0.000457719954
0.000457720341
0.000457720719
0.000457721086
0.000457721441
0.000457721787
0.000457722121
0.000457722444
0.000457722755
0.000457723059
0.000457723334
0.000457729921
0.000457724864
0.000457730908
0.000457730517
0.000457729133
0.000457727696
0.000457726588
0.000457726087
0.000457726361
0.000457727472
0.000457729395
0.000457732025
0.0004577352
0.000457738726
0.000457742409
0.000457746057
0.000457749476
0.000457752449
0.000457754766
0.00045775627
0.000457756903
0.000457756754
0.000457756048
0.000457755104
0.000457754271
0.000457753866
0.000457754111
0.00045775512
0.000457756897
0.000457759363
0.000457762372
0.000457765739
0.000457769257
0.000457772705
0.000457775858
0.000457778498
0.000457780438
0.000457781546
0.000457781783
0.000457781222
0.000457780053
0.000457778562
0.000457777079
0.000457775912
0.000457775286
0.000457775296
0.00045777591
0.000457776987
0.000457778338
0.000457779781
0.000457781185
0.000457782493
0.000457783707
0.000457784871
0.000457786041
0.00045778726
0.000457788558
0.000457789945
0.000457791426
0.000457793
0.000457794672
0.000457796447
0.000457798331
0.000457800329
0.000457802448
0.000457804685
0.000457807041
0.000457809514
0.000457812096
0.00045781478
0.000457817557
0.000457820413
0.000457823334
0.000457826307
0.000457829309
0.000457832322
0.000457835325
0.000457838293
0.000457841201
0.000457844026
0.000457846739
0.000457849314
0.000457851726
0.000457853944
0.000457855924
0.000457854475
0.00045785191
0.000457848952
0.0004578456
0.000457841857
0.00045783773
0.000457833235
0.000457828392
0.000457823223
0.00045781776
0.000457812039
0.000457806096
0.000457799974
0.000457793722
0.000457787384
0.000457781009
0.000457774649
0.000457768348
0.000457762152
0.000457756106
0.000457750249
0.000457744615
0.000457739237
0.000457734138
0.000457729341
0.000457724858
0.000457720703
0.000457716879
0.000457713387
0.000457710225
0.000457707385
0.000457704857
0.000457702632
0.000457700694
0.000457699028
0.000457697619
0.000457696449
0.000457695502
0.00045769476
0.000457694211
0.000457693835
0.000457693617
0.000457693544
0.000457693601
0.000457693772
0.000457694047
0.00045769441
0.00045769485
0.000457695358
0.000457695922
0.000457696532
0.00045769718
0.000457697856
0.000457698552
0.000457699265
0.000457699988
0.000457700517
0.000457700655
0.000457700721
0.000457700854
0.00045770105
0.000457701299
0.000457701597
0.000457701936
0.000457702313
0.000457702721
0.000457703155
0.000457703612
0.000457704088
0.000457704577
0.000457705079
0.00045770559
0.000457706107
0.000457706629
0.000457707154
0.000457707679
0.000457708202
0.000457708725
0.000457709243
0.000457709758
0.000457710266
0.000457710769
0.000457711263
0.000457711751
0.00045771223
0.0004577127
0.000457713161
0.000457713612
0.000457714052
0.000457714483
0.000457714903
0.000457715311
0.00045771571
0.000457716097
0.000457716473
0.000457716836
0.00045771719
0.000457717532
0.000457717861
0.000457718181
0.000457718488
0.000457718783
0.000457719068
0.000457719343
0.000457719598
0.000457726142
0.000457724731
0.000457730683
0.000457730777
0.000457729139
0.000457727279
0.00045772564
0.000457724584
0.000457724349
0.000457725048
0.00045772669
0.000457729184
0.000457732372
0.000457736051
0.000457740011
0.000457744047
0.000457747934
0.000457751414
0.000457754213
0.000457756101
0.000457756961
0.000457756846
0.000457755986
0.00045775473
0.000457753478
0.000457752609
0.000457752408
0.000457753046
0.000457754569
0.000457756918
0.000457759956
0.000457763491
0.000457767301
0.00045777114
0.000457774752
0.000457777876
0.000457780271
0.000457781748
0.000457782213
0.000457781703
0.000457780401
0.000457778611
0.000457776715
0.000457775088
0.000457774029
0.000457773692
0.000457774075
0.000457775038
0.000457776366
0.000457777836
0.000457779277
0.000457780602
0.000457781804
0.000457782927
0.000457784037
0.000457785189
0.00045778642
0.000457787748
0.000457789176
0.000457790706
0.000457792342
0.000457794089
0.000457795957
0.000457797952
0.000457800081
0.000457802346
0.000457804746
0.000457807281
0.000457809943
0.000457812727
0.000457815624
0.00045781862
0.000457821703
0.000457824856
0.000457828061
0.000457831297
0.000457834544
0.000457837776
0.000457840968
0.000457844095
0.000457847127
0.000457850034
0.00045785279
0.000457855365
0.000457857746
0.000457856009
0.000457853164
0.000457849899
0.000457846213
0.000457842113
0.000457837608
0.000457832713
0.000457827454
0.000457821855
0.000457815951
0.000457809781
0.000457803389
0.000457796823
0.000457790135
0.000457783379
0.000457776608
0.000457769879
0.000457763244
0.000457756754
0.000457750457
0.000457744396
0.000457738607
0.000457733125
0.000457727972
0.000457723169
0.000457718729
0.00045771466
0.000457710963
0.000457707634
0.000457704667
0.00045770205
0.000457699769
0.000457697808
0.000457696147
0.000457694767
0.00045769365
0.000457692774
0.000457692119
0.000457691666
0.000457691397
0.000457691292
0.000457691335
0.000457691511
0.000457691803
0.000457692195
0.000457692677
0.000457693235
0.000457693857
0.000457694534
0.000457695254
0.00045769601
0.000457696792
0.00045769759
0.000457698395
0.000457699199
0.000457699904
0.000457700027
0.000457700006
0.000457700064
0.000457700194
0.000457700391
0.000457700643
0.000457700945
0.00045770129
0.000457701675
0.000457702092
0.000457702536
0.000457703004
0.000457703491
0.000457703993
0.000457704508
0.000457705032
0.000457705562
0.000457706098
0.000457706635
0.000457707174
0.000457707711
0.000457708247
0.000457708778
0.000457709307
0.000457709829
0.000457710345
0.000457710853
0.000457711355
0.000457711848
0.000457712331
0.000457712805
0.000457713269
0.000457713723
0.000457714167
0.000457714599
0.000457715021
0.000457715432
0.000457715831
0.00045771622
0.000457716596
0.000457716962
0.000457717316
0.000457717658
0.00045771799
0.00045771831
0.000457718618
0.000457718915
0.000457719203
0.000457719467
0.000457726025
0.000457724559
0.000457730341
0.000457730803
0.000457728842
0.000457726443
0.000457724207
0.00045772259
0.000457721899
0.000457722289
0.000457723788
0.000457726305
0.000457729667
0.000457733643
0.000457737997
0.000457742489
0.000457746859
0.000457750802
0.00045775399
0.000457756134
0.000457757068
0.00045775682
0.000457755627
0.00045775389
0.000457752094
0.000457750703
0.00045775008
0.000457750446
0.00045775187
0.000457754294
0.000457757559
0.000457761446
0.000457765694
0.000457770015
0.000457774106
0.000457777659
0.000457780384
0.000457782051
0.000457782531
0.000457781847
0.000457780191
0.000457777917
0.000457775476
0.000457773324
0.000457771831
0.000457771195
0.000457771424
0.000457772358
0.000457773737
0.000457775292
0.000457776811
0.000457778182
0.000457779392
0.000457780491
0.000457781558
0.000457782664
0.000457783854
0.000457785151
0.000457786561
0.000457788085
0.000457789728
0.000457791497
0.000457793402
0.000457795454
0.000457797659
0.000457800023
0.000457802544
0.000457805225
0.000457808057
0.000457811036
0.000457814152
0.000457817394
0.000457820745
0.000457824191
0.000457827711
0.000457831284
0.000457834889
0.000457838498
0.000457842086
0.000457845626
0.000457849088
0.000457852442
0.000457855659
0.000457858702
0.000457861525
0.000457859691
0.000457856567
0.000457852983
0.000457848942
0.000457844445
0.000457839506
0.00045783414
0.000457828375
0.000457822239
0.000457815771
0.000457809017
0.000457802026
0.000457794854
0.000457787562
0.00045778021
0.000457772864
0.000457765587
0.00045775844
0.000457751482
0.000457744767
0.000457738343
0.000457732251
0.000457726527
0.000457721196
0.000457716278
0.000457711783
0.000457707718
0.000457704079
0.000457700858
0.000457698044
0.00045769562
0.000457693564
0.000457691857
0.000457690473
0.000457689388
0.000457688577
0.000457688014
0.000457687676
0.000457687539
0.000457687583
0.000457687784
0.000457688123
0.000457688584
0.000457689148
0.0004576898
0.000457690527
0.000457691315
0.000457692151
0.000457693026
0.000457693929
0.000457694851
0.000457695782
0.000457696714
0.000457697644
0.000457698577
0.000457698909
0.000457698859
0.000457698891
0.000457698998
0.000457699171
0.000457699408
0.000457699697
0.000457700035
0.000457700414
0.00045770083
0.000457701277
0.00045770175
0.000457702246
0.00045770276
0.000457703289
0.00045770383
0.00045770438
0.000457704935
0.000457705496
0.000457706058
0.000457706621
0.000457707181
0.00045770774
0.000457708294
0.000457708844
0.000457709387
0.000457709922
0.00045771045
0.00045771097
0.00045771148
0.000457711981
0.000457712473
0.000457712953
0.000457713423
0.000457713883
0.000457714331
0.000457714768
0.000457715194
0.000457715609
0.000457716011
0.000457716402
0.000457716782
0.00045771715
0.000457717505
0.00045771785
0.000457718183
0.000457718505
0.000457718815
0.000457719117
0.000457719395
0.000457725978
0.000457724407
0.000457730064
0.000457730764
0.000457728763
0.000457725893
0.00045772309
0.000457720898
0.000457719698
0.000457719691
0.000457720937
0.00045772336
0.000457726788
0.000457730978
0.000457735678
0.000457740625
0.000457745526
0.000457750025
0.000457753724
0.00045775626
0.000457757403
0.000457757155
0.000457755763
0.000457753664
0.000457751397
0.000457749498
0.000457748398
0.000457748379
0.000457749554
0.000457751888
0.000457755227
0.00045775934
0.000457763948
0.000457768733
0.000457773353
0.000457777447
0.000457780658
0.000457782687
0.000457783351
0.000457782645
0.000457780769
0.000457778111
0.000457775181
0.00045777251
0.000457770538
0.000457769524
0.000457769502
0.000457770308
0.000457771651
0.000457773216
0.000457774751
0.000457776116
0.000457777285
0.000457778314
0.000457779292
0.000457780302
0.000457781402
0.000457782617
0.000457783957
0.000457785423
0.000457787021
0.000457788759
0.000457790651
0.000457792709
0.000457794941
0.000457797355
0.000457799951
0.000457802732
0.000457805691
0.000457808822
0.000457812118
0.000457815565
0.000457819147
0.000457822851
0.000457826654
0.000457830534
0.00045783447
0.000457838434
0.0004578424
0.000457846339
0.00045785022
0.00045785401
0.000457857677
0.000457861184
0.000457864504
0.000457862861
0.000457859472
0.000457855582
0.000457851192
0.000457846306
0.000457840936
0.0004578351
0.000457828826
0.000457822147
0.000457815107
0.000457807757
0.000457800153
0.00045779236
0.000457784447
0.000457776486
0.000457768551
0.000457760716
0.000457753051
0.000457745625
0.000457738498
0.000457731726
0.000457725352
0.000457719417
0.000457713944
0.000457708954
0.000457704454
0.000457700447
0.000457696924
0.000457693872
0.000457691272
0.000457689101
0.000457687331
0.000457685935
0.000457684881
0.000457684139
0.000457683679
0.000457683471
0.000457683486
0.000457683697
0.000457684079
0.000457684608
0.000457685262
0.000457686022
0.00045768687
0.000457687788
0.000457688764
0.000457689783
0.000457690834
0.000457691907
0.000457692992
0.000457694082
0.000457695171
0.000457696253
0.000457697323
0.000457697986
0.00045769792
0.000457697896
0.000457697953
0.000457698087
0.000457698287
0.00045769855
0.000457698867
0.000457699231
0.000457699636
0.000457700078
0.000457700551
0.000457701049
0.00045770157
0.000457702109
0.00045770266
0.000457703224
0.000457703796
0.000457704372
0.000457704953
0.000457705535
0.000457706117
0.000457706696
0.000457707273
0.000457707844
0.000457708411
0.000457708971
0.000457709524
0.000457710067
0.000457710604
0.00045771113
0.000457711646
0.000457712152
0.000457712648
0.000457713132
0.000457713606
0.000457714068
0.000457714518
0.000457714957
0.000457715384
0.0004577158
0.000457716203
0.000457716595
0.000457716976
0.000457717344
0.000457717701
0.000457718047
0.00045771838
0.000457718703
0.000457719018
0.000457719305
0.000457725902
0.000457724238
0.000457729736
0.000457730505
0.000457728653
0.000457725284
0.000457721894
0.000457719122
0.00045771742
0.000457717041
0.000457718072
0.000457720447
0.000457723986
0.000457728429
0.000457733497
0.0004577389
0.000457744307
0.000457749317
0.000457753471
0.000457756344
0.000457757651
0.000457757356
0.000457755708
0.000457753188
0.000457750411
0.000457747993
0.00045774644
0.00045774609
0.000457747091
0.000457749417
0.000457752911
0.00045775732
0.000457762335
0.000457767602
0.000457772734
0.00045777732
0.000457780958
0.000457783302
0.000457784122
0.000457783379
0.000457781259
0.000457778178
0.000457774713
0.000457771477
0.000457768994
0.000457767582
0.000457767302
0.000457767981
0.000457769293
0.000457770877
0.000457772437
0.000457773803
0.000457774937
0.000457775898
0.000457776787
0.000457777702
0.000457778708
0.00045777984
0.000457781109
0.000457782519
0.000457784076
0.000457785792
0.000457787682
0.00045778976
0.000457792039
0.000457794527
0.000457797228
0.000457800143
0.000457803269
0.000457806599
0.000457810125
0.000457813834
0.000457817711
0.000457821738
0.000457825894
0.000457830156
0.0004578345
0.000457838897
0.000457843318
0.000457847734
0.000457852113
0.000457856418
0.000457860618
0.000457864671
0.000457868536
0.00045786742
0.000457863768
0.000457859564
0.000457854807
0.0004578495
0.000457843654
0.000457837288
0.000457830433
0.000457823125
0.000457815411
0.000457807353
0.000457799013
0.000457790467
0.000457781797
0.000457773086
0.000457764421
0.000457755891
0.000457747577
0.000457739558
0.000457731906
0.000457724683
0.000457717939
0.000457711716
0.00045770604
0.000457700929
0.000457696388
0.000457692415
0.000457688994
0.000457686106
0.000457683724
0.000457681817
0.000457680348
0.000457679284
0.000457678585
0.000457678213
0.000457678134
0.000457678309
0.000457678707
0.000457679294
0.000457680045
0.00045768093
0.000457681927
0.000457683014
0.000457684171
0.000457685382
0.000457686632
0.000457687907
0.000457689195
0.00045769049
0.000457691779
0.000457693055
0.000457694312
0.000457695542
0.000457696521
0.000457696617
0.000457696557
0.00045769659
0.000457696705
0.000457696896
0.000457697151
0.000457697466
0.000457697832
0.000457698243
0.000457698693
0.000457699177
0.00045769969
0.000457700226
0.000457700783
0.000457701356
0.000457701942
0.000457702538
0.000457703141
0.000457703747
0.000457704357
0.000457704967
0.000457705576
0.000457706181
0.000457706782
0.000457707377
0.000457707967
0.000457708549
0.000457709122
0.000457709686
0.000457710241
0.000457710786
0.00045771132
0.000457711844
0.000457712356
0.000457712857
0.000457713347
0.000457713824
0.00045771429
0.000457714744
0.000457715186
0.000457715616
0.000457716033
0.00045771644
0.000457716833
0.000457717215
0.000457717585
0.000457717944
0.00045771829
0.000457718625
0.000457718953
0.000457719251
0.000457725871
0.000457724068
0.000457729418
0.000457730256
0.000457728561
0.000457724702
0.000457720729
0.000457717372
0.000457715154
0.000457714378
0.000457715163
0.00045771746
0.000457721085
0.000457725768
0.000457731207
0.000457737087
0.000457743046
0.000457748626
0.000457753304
0.000457756578
0.0004577581
0.000457757805
0.000457755945
0.000457753039
0.000457749766
0.000457746819
0.000457744779
0.000457744048
0.000457744816
0.00045774708
0.000457750683
0.000457755362
0.000457760783
0.00045776656
0.000457772262
0.000457777422
0.000457781568
0.000457784279
0.000457785273
0.000457784481
0.000457782109
0.000457778617
0.000457774633
0.000457770847
0.000457767854
0.000457766029
0.000457765464
0.00045776598
0.000457767223
0.000457768785
0.000457770329
0.000457771653
0.00045777271
0.000457773561
0.00045777432
0.000457775098
0.000457775972
0.000457776982
0.000457778143
0.000457779461
0.000457780944
0.000457782605
0.000457784464
0.000457786537
0.00045778884
0.000457791384
0.000457794173
0.000457797211
0.000457800493
0.000457804015
0.000457807767
0.000457811735
0.000457815903
0.000457820254
0.000457824765
0.000457829411
0.000457834167
0.000457839005
0.000457843893
0.000457848802
0.000457853697
0.000457858541
0.0004578633
0.000457867931
0.000457872393
0.000457872219
0.000457868319
0.00045786381
0.000457858689
0.000457852957
0.000457846622
0.000457839705
0.000457832235
0.000457824254
0.000457815815
0.000457806984
0.000457797837
0.000457788459
0.000457778947
0.000457769399
0.000457759919
0.000457750611
0.000457741571
0.000457732893
0.00045772466
0.000457716943
0.0004577098
0.000457703274
0.000457697395
0.000457692177
0.000457687621
0.000457683717
0.000457680444
0.000457677772
0.000457675666
0.000457674082
0.000457672978
0.000457672308
0.000457672024
0.00045767208
0.000457672435
0.000457673045
0.000457673872
0.000457674879
0.000457676036
0.000457677311
0.000457678678
0.000457680117
0.000457681604
0.000457683123
0.00045768466
0.000457686201
0.000457687734
0.000457689251
0.000457690745
0.000457692209
0.000457693642
0.000457695023
0.000457695357
0.000457695257
0.000457695257
0.000457695347
0.000457695516
0.000457695759
0.000457696066
0.00045769643
0.000457696843
0.0004576973
0.000457697793
0.000457698319
0.000457698872
0.000457699447
0.000457700041
0.000457700648
0.000457701267
0.000457701894
0.000457702527
0.000457703161
0.000457703798
0.000457704434
0.000457705067
0.000457705696
0.00045770632
0.000457706937
0.000457707548
0.00045770815
0.000457708743
0.000457709326
0.000457709899
0.000457710462
0.000457711013
0.000457711553
0.000457712082
0.000457712597
0.000457713102
0.000457713594
0.000457714073
0.000457714542
0.000457714997
0.00045771544
0.00045771587
0.000457716289
0.000457716695
0.000457717089
0.000457717471
0.000457717842
0.0004577182
0.000457718547
0.000457718887
0.000457719195
0.00045772583
0.000457723894
0.000457729088
0.000457729998
0.000457728476
0.000457724121
0.000457719557
0.000457715606
0.000457712866
0.000457711691
0.000457712235
0.000457714462
0.000457718189
0.000457723127
0.000457728953
0.000457735321
0.00045774183
0.000457747969
0.00045775315
0.0004577568
0.000457758515
0.000457758197
0.000457756105
0.000457752799
0.000457749025
0.000457745554
0.000457743044
0.000457741955
0.000457742518
0.000457744749
0.000457748491
0.000457753467
0.000457759314
0.000457765609
0.000457771872
0.000457777586
0.000457782224
0.000457785313
0.000457785951
0.000457785111
0.000457783151
0.000457779246
0.000457774716
0.000457770339
0.000457766793
0.00045776452
0.000457763641
0.000457763973
0.000457765129
0.000457766655
0.00045776817
0.000457769441
0.000457770406
0.00045777113
0.000457771738
0.000457772355
0.000457773071
0.000457773933
0.000457774961
0.000457776164
0.000457777551
0.00045777914
0.000457780952
0.000457783009
0.00045778533
0.000457787928
0.000457790809
0.000457793979
0.000457797434
0.000457801169
0.000457805175
0.000457809437
0.000457813939
0.000457818662
0.000457823579
0.000457828666
0.000457833895
0.000457839235
0.000457844654
0.000457850121
0.000457855598
0.00045786105
0.000457866437
0.000457871716
0.000457876841
0.000457878109
0.00045787397
0.000457869158
0.000457863665
0.000457857486
0.000457850627
0.000457843107
0.000457834956
0.000457826218
0.000457816951
0.000457807232
0.000457797147
0.000457786797
0.000457776295
0.000457765761
0.000457755315
0.000457745084
0.000457735182
0.000457725722
0.0004577168
0.0004577085
0.000457700885
0.000457694006
0.00045768789
0.00045768255
0.000457677979
0.000457674161
0.000457671062
0.000457668642
0.000457666855
0.000457665644
0.000457664954
0.00045766473
0.000457664914
0.00045766545
0.000457666288
0.000457667379
0.000457668678
0.000457670145
0.000457671744
0.000457673442
0.00045767521
0.000457677027
0.00045767887
0.000457680719
0.000457682564
0.000457684388
0.000457686184
0.000457687943
0.000457689657
0.00045769132
0.000457692926
0.000457693781
0.000457693646
0.000457693624
0.000457693703
0.000457693871
0.000457694118
0.000457694435
0.000457694812
0.000457695243
0.00045769572
0.000457696237
0.000457696787
0.000457697367
0.000457697971
0.000457698593
0.000457699232
0.000457699883
0.000457700541
0.000457701207
0.000457701876
0.000457702546
0.000457703215
0.000457703882
0.000457704545
0.000457705201
0.000457705852
0.000457706494
0.000457707129
0.000457707754
0.000457708368
0.000457708972
0.000457709566
0.000457710147
0.000457710716
0.000457711275
0.00045771182
0.000457712353
0.000457712874
0.000457713382
0.000457713876
0.000457714359
0.000457714829
0.000457715286
0.00045771573
0.000457716162
0.000457716582
0.000457716988
0.000457717383
0.000457717766
0.000457718137
0.000457718496
0.000457718847
0.000457719166
0.000457725822
0.000457723717
0.000457728752
0.000457729737
0.000457728394
0.000457723538
0.000457718376
0.000457713823
0.000457710551
0.000457708967
0.00045770926
0.000457711411
0.000457715234
0.00045772043
0.00045772665
0.000457733522
0.000457740603
0.000457747331
0.000457753048
0.000457757109
0.000457759046
0.000457758726
0.000457756414
0.00045775271
0.000457748428
0.00045774442
0.000457741422
0.000457739957
0.0004577403
0.000457742489
0.000457746369
0.000457751651
0.000457757945
0.000457764792
0.000457771667
0.000457777992
0.00045778317
0.000457786653
0.000457786062
0.00045778504
0.000457784447
0.000457780115
0.000457775046
0.000457770085
0.000457765989
0.00045776326
0.000457762049
0.000457762175
0.000457763217
0.000457764678
0.000457766131
0.000457767314
0.00045776815
0.000457768707
0.000457769123
0.000457769539
0.000457770056
0.000457770731
0.000457771588
0.000457772639
0.000457773897
0.000457775382
0.000457777122
0.000457779142
0.000457781464
0.000457784104
0.000457787072
0.000457790373
0.000457794005
0.000457797961
0.000457802234
0.000457806805
0.000457811657
0.000457816768
0.000457822112
0.000457827661
0.000457833385
0.000457839253
0.000457845231
0.000457851287
0.000457857383
0.000457863481
0.000457869541
0.000457875519
0.000457881368
0.000457884672
0.000457880318
0.00045787522
0.000457869361
0.000457862732
0.000457855332
0.000457847175
0.000457838293
0.000457828729
0.000457818547
0.000457807834
0.000457796689
0.000457785232
0.000457773596
0.000457761923
0.000457750362
0.000457739062
0.000457728165
0.000457717803
0.000457708092
0.000457699129
0.000457690989
0.000457683724
0.000457677363
0.000457671912
0.000457667357
0.00045766367
0.000457660805
0.000457658706
0.000457657312
0.000457656552
0.000457656357
0.000457656659
0.000457657386
0.000457658474
0.000457659864
0.000457661498
0.000457663326
0.000457665302
0.000457667388
0.000457669548
0.000457671751
0.000457673974
0.000457676194
0.000457678393
0.00045768056
0.000457682679
0.000457684742
0.000457686745
0.000457688681
0.000457690549
0.000457691827
0.000457691919
0.000457691881
0.000457691954
0.000457692122
0.000457692376
0.000457692704
0.000457693099
0.000457693551
0.000457694053
0.000457694597
0.000457695177
0.000457695787
0.000457696423
0.00045769708
0.000457697752
0.000457698438
0.000457699133
0.000457699833
0.000457700538
0.000457701244
0.000457701948
0.000457702651
0.000457703349
0.000457704041
0.000457704726
0.000457705403
0.000457706071
0.00045770673
0.000457707377
0.000457708014
0.000457708638
0.000457709252
0.000457709852
0.00045771044
0.000457711016
0.000457711578
0.000457712126
0.000457712663
0.000457713185
0.000457713694
0.000457714191
0.000457714674
0.000457715144
0.000457715601
0.000457716046
0.000457716477
0.000457716896
0.000457717304
0.000457717698
0.00045771808
0.000457718451
0.000457718814
0.000457719142
0.000457725814
0.000457723536
0.000457728411
0.000457729473
0.000457728313
0.000457722948
0.000457717181
0.000457712016
0.000457708202
0.000457706202
0.000457706238
0.000457708312
0.000457712239
0.000457717703
0.000457724333
0.000457731724
0.000457739392
0.000457746719
0.000457752975
0.000457757442
0.000457759593
0.000457759264
0.000457756725
0.000457752619
0.000457747828
0.000457743286
0.000457739803
0.000457737969
0.000457738101
0.00045774026
0.000457744295
0.0004577499
0.000457756661
0.000457764078
0.000457771576
0.00045777852
0.000457784253
0.000457788172
0.000457786007
0.000457784746
0.000457785355
0.000457781259
0.000457775637
0.000457770068
0.000457765393
0.000457762178
0.000457760611
0.000457760505
0.000457761411
0.000457762785
0.000457764153
0.00045776522
0.000457765897
0.000457766254
0.000457766441
0.000457766614
0.00045776689
0.000457767335
0.000457767978
0.000457768836
0.000457769927
0.000457771275
0.000457772912
0.000457774869
0.000457777173
0.000457779842
0.00045778289
0.000457786323
0.000457790139
0.000457794332
0.000457798892
0.000457803802
0.000457809039
0.000457814581
0.000457820398
0.000457826459
0.000457832733
0.000457839185
0.00045784578
0.000457852484
0.000457859259
0.000457866066
0.000457872867
0.000457879616
0.000457886263
0.000457891968
0.000457887773
0.000457882406
0.000457876189
0.000457869101
0.000457861134
0.000457852296
0.000457842613
0.000457832131
0.000457820917
0.000457809069
0.000457796702
0.000457783956
0.000457770993
0.000457757984
0.000457745108
0.00045773255
0.00045772048
0.00045770906
0.000457698429
0.000457688702
0.000457679963
0.00045767227
0.000457665648
0.000457660099
0.000457655595
0.000457652093
0.000457649529
0.000457647829
0.000457646913
0.000457646693
0.000457647081
0.000457647994
0.000457649348
0.000457651066
0.000457653079
0.000457655321
0.000457657736
0.000457660273
0.000457662891
0.000457665551
0.000457668222
0.00045767088
0.000457673502
0.000457676071
0.000457678576
0.000457681005
0.000457683351
0.00045768561
0.000457687774
0.000457689509
0.000457689874
0.00045768983
0.000457689906
0.000457690091
0.000457690367
0.000457690725
0.000457691152
0.000457691641
0.000457692181
0.000457692767
0.00045769339
0.000457694044
0.000457694724
0.000457695425
0.000457696143
0.000457696872
0.000457697612
0.000457698357
0.000457699104
0.000457699854
0.000457700601
0.000457701344
0.000457702083
0.000457702815
0.00045770354
0.000457704255
0.000457704961
0.000457705655
0.000457706339
0.000457707011
0.000457707671
0.000457708317
0.000457708951
0.000457709571
0.000457710177
0.000457710771
0.000457711351
0.000457711916
0.000457712468
0.000457713007
0.000457713531
0.000457714042
0.000457714539
0.000457715023
0.000457715493
0.000457715951
0.000457716396
0.000457716826
0.000457717246
0.000457717652
0.000457718046
0.000457718428
0.000457718803
0.00045771914
0.000457725832
0.000457723351
0.000457728063
0.000457729205
0.00045772823
0.000457722349
0.000457715967
0.00045771018
0.000457705813
0.000457703386
0.00045770316
0.000457705155
0.000457709188
0.000457714927
0.000457721979
0.000457729906
0.000457738179
0.000457746122
0.000457752935
0.000457757824
0.0004577602
0.000457759868
0.000457757102
0.00045775259
0.000457747283
0.000457742196
0.000457738221
0.000457736012
0.000457735933
0.000457738069
0.000457742271
0.000457748222
0.000457755478
0.000457763501
0.000457771665
0.000457779271
0.000457785591
0.000457789462
0.000457786012
0.000457784506
0.000457785414
0.000457782683
0.000457776508
0.000457770328
0.000457765067
0.000457761354
0.000457759411
0.000457759051
0.000457759795
0.000457761052
0.000457762302
0.000457763218
0.000457763695
0.000457763806
0.000457763715
0.000457763595
0.000457763577
0.000457763739