/*--------------------------------*- C++ -*----------------------------------*\
| =========                 |                                                 |
| \\      /  F ield         | OpenFOAM: The Open Source CFD Toolbox           |
|  \\    /   O peration     | Version:  v2012                                 |
|   \\  /    A nd           | Website:  www.openfoam.com                      |
|    \\/     M anipulation  |                                                 |
\*---------------------------------------------------------------------------*/
FoamFile
{
    version     2.0;
    format      ascii;
    class       volVectorField;
    location    "2.59";
    object      U;
}
// * * * * * * * * * * * * * * * * * * * * * * * * * * * * * * * * * * * * * //

dimensions      [0 1 -1 0 0 0 0];


internalField   nonuniform List<vector> 
28416
(
(0.100001221 -3.48253927e-06 0)
(0.100005971 2.76097166e-07 0)
(0.1000102 1.67701171e-05 0)
(0.100008406 4.43154717e-05 0)
(0.0999954483 7.94001228e-05 0)
(0.0999689437 0.000117849268 0)
(0.0999286919 0.000155539389 0)
(0.0998758739 0.000188640058 0)
(0.0998127821 0.000213908621 0)
(0.0997425283 0.000229112093 0)
(0.0996685866 0.0002333349 0)
(0.0995943811 0.000226938345 0)
(0.0995230427 0.000211156641 0)
(0.0994573241 0.00018763498 0)
(0.0993995709 0.000158314555 0)
(0.0993516056 0.000125750848 0)
(0.0993144306 9.34825669e-05 0)
(0.0992878227 6.59520496e-05 0)
(0.0992700641 4.77370006e-05 0)
(0.0992579206 4.23494713e-05 0)
(0.0992469565 5.12920019e-05 0)
(0.0992324225 7.37436148e-05 0)
(0.0992104105 0.000106722528 0)
(0.099178516 0.000145698299 0)
(0.0991359136 0.000185562135 0)
(0.0990832598 0.000221545892 0)
(0.0990224882 0.000249797377 0)
(0.0989563776 0.000267646843 0)
(0.0988880358 0.000273693115 0)
(0.0988205326 0.000267771831 0)
(0.0987567061 0.000250848559 0)
(0.0986990357 0.000224888227 0)
(0.0986495184 0.000192745081 0)
(0.0986095682 0.000158048666 0)
(0.0985798057 0.000124993625 0)
(0.0985598023 9.80315874e-05 0)
(0.0985479715 8.13252083e-05 0)
(0.098541578 7.8078415e-05 0)
(0.0985370644 8.99303664e-05 0)
(0.098530711 0.000116422082 0)
(0.0985193015 0.000154828188 0)
(0.0985006424 0.000200603931 0)
(0.0984738829 0.000248339024 0)
(0.0984395404 0.000292937201 0)
(0.0983992109 0.000330692116 0)
(0.0983550544 0.000359932041 0)
(0.098309215 0.000381050627 0)
(0.0982633458 0.000395967351 0)
(0.0982183583 0.000407260193 0)
(0.0981744286 0.00041730294 0)
(0.0981312001 0.000427687866 0)
(0.0980880701 0.000439056669 0)
(0.0980444457 0.000451282838 0)
(0.0979998956 0.000463830961 0)
(0.0979541853 0.000476102432 0)
(0.0979072325 0.000487645213 0)
(0.097859032 0.000498203755 0)
(0.0978095967 0.000507660045 0)
(0.0977589307 0.000515941441 0)
(0.0977070307 0.000522952262 0)
(0.0976539041 0.000528549433 0)
(0.0975995859 0.000532552744 0)
(0.0975441499 0.000534768754 0)
(0.097487712 0.000535011579 0)
(0.0974304293 0.000533113299 0)
(0.0973724982 0.00052892483 0)
(0.0973141535 0.000522315297 0)
(0.0972556672 0.000513171881 0)
(0.0971973479 0.000501400628 0)
(0.0971395394 0.000486928222 0)
(0.0970826191 0.000469704229 0)
(0.0970269961 0.000449703303 0)
(0.0969731086 0.000426927074 0)
(0.0969214241 0.000401405374 0)
(0.096872438 0.00037319641 0)
(0.0968266741 0.000342385022 0)
(0.0967846845 0.000309078974 0)
(0.0967470481 0.000273402477 0)
(0.096714364 0.000235486887 0)
(0.0966872367 0.000195463912 0)
(0.0966662493 0.000153461124 0)
(0.0966519469 0.000109603182 0)
(0.0966447396 6.40336451e-05 0)
(0.0966445108 1.70490457e-05 0)
(0.0966519912 -3.03169075e-05 0)
(0.0966687659 -7.81829448e-05 0)
(0.0966952485 -0.000126869565 0)
(0.0967312909 -0.000176184271 0)
(0.0967770271 -0.000225815118 0)
(0.0968325825 -0.000275448336 0)
(0.0968979332 -0.000324725038 0)
(0.0969729692 -0.00037325073 0)
(0.0970574967 -0.000420613551 0)
(0.097151213 -0.000466386034 0)
(0.0972537048 -0.000510127412 0)
(0.0973644554 -0.000551392276 0)
(0.0974828505 -0.000589743179 0)
(0.0976081858 -0.00062476571 0)
(0.097739677 -0.000656084279 0)
(0.0978764692 -0.000683376326 0)
(0.0980176488 -0.000706383266 0)
(0.0981622558 -0.000724917493 0)
(0.0983092986 -0.000738865731 0)
(0.0984577705 -0.000748189476 0)
(0.0986066676 -0.000752923261 0)
(0.0987550063 -0.000753171254 0)
(0.0989018405 -0.000749102392 0)
(0.0990462768 -0.000740944104 0)
(0.0991874877 -0.000728974732 0)
(0.0993247218 -0.000713514823 0)
(0.0994573118 -0.00069491766 0)
(0.0995846793 -0.000673559445 0)
(0.0997063376 -0.00064982958 0)
(0.0998218916 -0.0006241214 0)
(0.0999310358 -0.000596823737 0)
(0.100033551 -0.000568313433 0)
(0.100129297 -0.000538949013 0)
(0.10021821 -0.000509065577 0)
(0.100300286 -0.000478969685 0)
(0.100375582 -0.000448934708 0)
(0.100444208 -0.00041919875 0)
(0.10050632 -0.000389965298 0)
(0.100562114 -0.000361404724 0)
(0.100611817 -0.000333656302 0)
(0.10065567 -0.000306827068 0)
(0.100693925 -0.000280978773 0)
(0.100726879 -0.000256125816 0)
(0.100754898 -0.000232267363 0)
(0.100778373 -0.000209420094 0)
(0.100797675 -0.000187608977 0)
(0.100813135 -0.000166836838 0)
(0.100825068 -0.000147083214 0)
(0.10083379 -0.000128320551 0)
(0.100839615 -0.000110520987 0)
(0.100842853 -9.36571974e-05 0)
(0.10084381 -7.77016489e-05 0)
(0.100842787 -6.26310593e-05 0)
(0.100840091 -4.84424893e-05 0)
(0.100836023 -3.51753877e-05 0)
(0.100830847 -2.29222508e-05 0)
(0.100824781 -1.18573711e-05 0)
(0.100817881 -2.19027491e-06 0)
(0.100809848 6.12850379e-06 0)
(0.100800452 1.34050451e-05 0)
(0.100789893 1.98528435e-05 0)
(0.100778452 2.55609735e-05 0)
(0.10076627 3.06002138e-05 0)
(0.100753446 3.5043234e-05 0)
(0.100740084 3.89547889e-05 0)
(0.100726286 4.23906368e-05 0)
(0.100712147 4.53993786e-05 0)
(0.100697752 4.80234397e-05 0)
(0.10068318 5.02996992e-05 0)
(0.100668499 5.22596877e-05 0)
(0.100653773 5.39297861e-05 0)
(0.100639056 5.53320309e-05 0)
(0.100624396 5.64853297e-05 0)
(0.100609833 5.74066168e-05 0)
(0.1005954 5.81117515e-05 0)
(0.100581128 5.8616113e-05 0)
(0.10056704 5.89348786e-05 0)
(0.100553156 5.90830515e-05 0)
(0.100539496 5.90753529e-05 0)
(0.100526076 5.892606e-05 0)
(0.100512908 5.86488249e-05 0)
(0.100500007 5.82564929e-05 0)
(0.100487383 5.77609384e-05 0)
(0.100475046 5.71729392e-05 0)
(0.100463007 5.65021035e-05 0)
(0.100451272 5.57568572e-05 0)
(0.100439848 5.49444938e-05 0)
(0.100428741 5.4071285e-05 0)
(0.100417955 5.31426349e-05 0)
(0.100407494 5.21632603e-05 0)
(0.10039736 5.11373713e-05 0)
(0.100387554 5.00688335e-05 0)
(0.100378077 4.89612914e-05 0)
(0.100368931 4.78182481e-05 0)
(0.100360113 4.6643096e-05 0)
(0.100351626 4.54391007e-05 0)
(0.100343468 4.42093488e-05 0)
(0.100335641 4.29566527e-05 0)
(0.100328145 4.16834687e-05 0)
(0.100320979 4.03915531e-05 0)
(0.100314156 3.90825666e-05 0)
(0.100307648 3.77535068e-05 0)
(0.100301569 3.6415213e-05 0)
(0.100295566 3.49987724e-05 0)
(0.100291007 3.37778062e-05 0)
(0.100283588 3.13901484e-05 0)
(0.100001302 -9.60388799e-06 0)
(0.10000794 -8.92671913e-06 0)
(0.10001627 1.55781389e-05 0)
(0.100019711 6.18030661e-05 0)
(0.100011577 0.000122982378 0)
(0.0999880723 0.000190696438 0)
(0.0999484428 0.000256846766 0)
(0.0998938839 0.000314546393 0)
(0.0998269663 0.000358507673 0)
(0.099751273 0.000385337739 0)
(0.0996708904 0.000393758046 0)
(0.0995899033 0.000384437852 0)
(0.0995120793 0.000359328296 0)
(0.0994407617 0.00032094418 0)
(0.0993788428 0.000272241646 0)
(0.0993286254 0.000217222019 0)
(0.0992914646 0.000161630434 0)
(0.0992672591 0.000112878586 0)
(0.0992540562 7.88256172e-05 0)
(0.0992481293 6.57976881e-05 0)
(0.0992445239 7.67584249e-05 0)
(0.0992377965 0.000110456285 0)
(0.0992229315 0.000161770834 0)
(0.0991963025 0.000222966552 0)
(0.0991562341 0.000285407191 0)
(0.0991030552 0.000341171538 0)
(0.0990388312 0.000384109277 0)
(0.0989668728 0.000410262846 0)
(0.098891133 0.000417836117 0)
(0.0988156824 0.000406911878 0)
(0.0987443599 0.000379103518 0)
(0.098680557 0.000337294043 0)
(0.0986270513 0.000285533532 0)
(0.0985858284 0.000229020369 0)
(0.098557844 0.00017396165 0)
(0.0985427188 0.000127201273 0)
(0.0985385635 9.54275372e-05 0)
(0.0985420802 8.40140229e-05 0)
(0.0985488448 9.57855456e-05 0)
(0.0985538602 0.000130074794 0)
(0.0985524596 0.000182548894 0)
(0.0985412305 0.000245984649 0)
(0.0985186145 0.000311834521 0)
(0.0984850726 0.000372156138 0)
(0.098442779 0.000421329512 0)
(0.098394911 0.000457041027 0)
(0.0983447614 0.000480267078 0)
(0.0982949559 0.000494350777 0)
(0.0982469935 0.000503577017 0)
(0.0982011957 0.000511784958 0)
(0.0981569983 0.000521465106 0)
(0.0981134074 0.000533529016 0)
(0.0980694289 0.000547647711 0)
(0.0980243336 0.000562865696 0)
(0.0979777293 0.000578175556 0)
(0.0979294878 0.000592854903 0)
(0.0978796181 0.00060653272 0)
(0.097828158 0.00061907586 0)
(0.0977751231 0.000630425111 0)
(0.0977205052 0.00064047613 0)
(0.0976642994 0.00064903754 0)
(0.0976065322 0.000655848323 0)
(0.0975472802 0.000660617921 0)
(0.0974866731 0.00066306018 0)
(0.0974248894 0.000662911062 0)
(0.0973621524 0.00065993422 0)
(0.0972987297 0.000653918258 0)
(0.0972349311 0.00064467428 0)
(0.0971711069 0.000632036751 0)
(0.0971076463 0.000615866308 0)
(0.0970449749 0.000596052756 0)
(0.0969835528 0.000572517158 0)
(0.0969238713 0.000545212639 0)
(0.0968664502 0.000514123963 0)
(0.0968118348 0.000479266165 0)
(0.0967605923 0.000440682217 0)
(0.0967133076 0.00039844004 0)
(0.0966705777 0.000352628771 0)
(0.0966330059 0.000303355193 0)
(0.0966011923 0.000250742474 0)
(0.0965757118 0.000194937135 0)
(0.0965571329 0.000136139377 0)
(0.0965461032 7.46192152e-05 0)
(0.0965436509 1.07124288e-05 0)
(0.0965501676 -5.51158466e-05 0)
(0.096565677 -0.000122400959 0)
(0.0965908637 -0.000190980972 0)
(0.0966262115 -0.000260512556 0)
(0.09667193 -0.000330545271 0)
(0.0967281714 -0.000400605191 0)
(0.096794998 -0.000470160744 0)
(0.0968723568 -0.000538623715 0)
(0.0969600812 -0.000605370557 0)
(0.0970578834 -0.000669755212 0)
(0.0971653499 -0.000731122151 0)
(0.0972819432 -0.000788823089 0)
(0.0974070061 -0.000842234376 0)
(0.0975397685 -0.000890774215 0)
(0.0976793569 -0.0009339194 0)
(0.0978248069 -0.000971220771 0)
(0.0979750778 -0.00100231656 0)
(0.0981290703 -0.00102694297 0)
(0.0982856464 -0.00104494144 0)
(0.098443651 -0.00105626232 0)
(0.0986019352 -0.0010609646 0)
(0.0987593779 -0.00105921195 0)
(0.0989149066 -0.00105126538 0)
(0.0990675166 -0.00103747294 0)
(0.0992162857 -0.00101825726 0)
(0.0993603867 -0.000994101529 0)
(0.0994990961 -0.000965534582 0)
(0.0996317991 -0.000933115919 0)
(0.099757991 -0.00089742109 0)
(0.0998772768 -0.000859028014 0)
(0.0999893669 -0.000818504663 0)
(0.100094071 -0.000776398306 0)
(0.100191292 -0.000733226549 0)
(0.100281016 -0.000689470329 0)
(0.100363302 -0.000645567751 0)
(0.100438276 -0.000601909218 0)
(0.100506119 -0.000558835317 0)
(0.100567056 -0.000516636557 0)
(0.100621348 -0.000475553539 0)
(0.100669288 -0.000435778093 0)
(0.100711198 -0.000397453736 0)
(0.100747433 -0.000360670755 0)
(0.100778356 -0.000325469312 0)
(0.100804325 -0.000291864256 0)
(0.100825702 -0.000259870969 0)
(0.100842868 -0.000229503497 0)
(0.100856206 -0.000200772223 0)
(0.100866065 -0.000173672717 0)
(0.100872767 -0.000148176675 0)
(0.100876625 -0.00012424239 0)
(0.100877952 -0.000101828947 0)
(0.100877044 -8.09154765e-05 0)
(0.10087418 -6.1483824e-05 0)
(0.100869591 -4.35109606e-05 0)
(0.100863471 -2.69834692e-05 0)
(0.100855929 -1.18791451e-05 0)
(0.100847046 1.91061019e-06 0)
(0.100837133 1.42753761e-05 0)
(0.100826485 2.50944648e-05 0)
(0.10081506 3.45713311e-05 0)
(0.10080281 4.29394962e-05 0)
(0.100789851 5.03108282e-05 0)
(0.100776308 5.67674907e-05 0)
(0.100762273 6.23981386e-05 0)
(0.10074783 6.72861347e-05 0)
(0.100733064 7.15045417e-05 0)
(0.100718056 7.51177423e-05 0)
(0.100702877 7.81831018e-05 0)
(0.100687594 8.07522858e-05 0)
(0.100672264 8.28718827e-05 0)
(0.100656943 8.45835321e-05 0)
(0.100641676 8.59243405e-05 0)
(0.100626506 8.69275596e-05 0)
(0.100611469 8.76231627e-05 0)
(0.100596596 8.80383132e-05 0)
(0.100581916 8.81978126e-05 0)
(0.100567452 8.81244901e-05 0)
(0.100553223 8.78394875e-05 0)
(0.100539249 8.73624548e-05 0)
(0.100525542 8.67116824e-05 0)
(0.100512117 8.59041794e-05 0)
(0.100498983 8.49557103e-05 0)
(0.10048615 8.38808076e-05 0)
(0.100473627 8.2692779e-05 0)
(0.100461419 8.14037232e-05 0)
(0.100449533 8.00245617e-05 0)
(0.100437973 7.85650898e-05 0)
(0.100426743 7.70340491e-05 0)
(0.100415845 7.54392166e-05 0)
(0.100405282 7.37875034e-05 0)
(0.100395055 7.20850565e-05 0)
(0.100385165 7.03373554e-05 0)
(0.100375613 6.85492929e-05 0)
(0.100366397 6.67252383e-05 0)
(0.100357517 6.48690749e-05 0)
(0.100348974 6.29842086e-05 0)
(0.100340767 6.10735465e-05 0)
(0.100332895 5.91394257e-05 0)
(0.100325358 5.71835586e-05 0)
(0.100318155 5.5206581e-05 0)
(0.100311294 5.32090652e-05 0)
(0.100304743 5.11847856e-05 0)
(0.100298616 4.91496553e-05 0)
(0.10029252 4.70018258e-05 0)
(0.100287878 4.516239e-05 0)
(0.100280035 4.16551522e-05 0)
(0.100001205 -1.40364929e-05 0)
(0.100007089 -1.82908207e-05 0)
(0.100014176 5.11408225e-06 0)
(0.100016001 5.42951016e-05 0)
(0.100006432 0.000122447829 0)
(0.0999822736 0.000199500745 0)
(0.0999427516 0.000275395451 0)
(0.0998888784 0.000341826609 0)
(0.099823005 0.000392700351 0)
(0.0997484726 0.000424195588 0)
(0.0996691585 0.000434841392 0)
(0.0995890005 0.000425320019 0)
(0.0995116744 0.000397740983 0)
(0.0994404612 0.000354832241 0)
(0.0993782052 0.000299806577 0)
(0.0993271925 0.000237073134 0)
(0.0992888209 0.000173079142 0)
(0.0992631291 0.00011626158 0)
(0.0992484084 7.56737749e-05 0)
(0.0992410866 5.87487447e-05 0)
(0.0992361075 6.91859838e-05 0)
(0.0992279429 0.000105895828 0)
(0.0992117931 0.000163307512 0)
(0.0991843716 0.000232752183 0)
(0.0991442096 0.000304365749 0)
(0.0990916497 0.000368914615 0)
(0.0990286035 0.000419090532 0)
(0.0989581268 0.000450113684 0)
(0.0988839115 0.000459758991 0)
(0.098809826 0.000448033557 0)
(0.0987395786 0.000416740594 0)
(0.0986764845 0.000369130856 0)
(0.0986232798 0.000309744621 0)
(0.0985819329 0.000244390737 0)
(0.0985534192 0.000180051871 0)
(0.0985374777 0.000124475464 0)
(0.0985324313 8.53040696e-05 0)
(0.0985351458 6.87553117e-05 0)
(0.0985413003 7.82280764e-05 0)
(0.0985460912 0.000113332888 0)
(0.0985451053 0.000169564278 0)
(0.0985350644 0.000238927974 0)
(0.0985143514 0.000311601192 0)
(0.0984831995 0.00037818679 0)
(0.0984434572 0.000431841426 0)
(0.0983979794 0.000469594423 0)
(0.0983498274 0.000492466309 0)
(0.0983015289 0.000504438996 0)
(0.0982546122 0.00051074188 0)
(0.0982095128 0.000516123367 0)
(0.0981658056 0.000523690646 0)
(0.0981226104 0.000534584147 0)
(0.0980789911 0.000548379167 0)
(0.0980342206 0.000563854212 0)
(0.0979878692 0.000579724525 0)
(0.0979397568 0.000595079668 0)
(0.0978898446 0.00060947404 0)
(0.0978381364 0.000622781616 0)
(0.0977846273 0.000634981049 0)
(0.0977292982 0.000645996612 0)
(0.0976721384 0.000655639567 0)
(0.0976131709 0.000663628268 0)
(0.0975524697 0.000669639419 0)
(0.0974901663 0.000673352079 0)
(0.0974264499 0.000674470235 0)
(0.0973615622 0.000672728587 0)
(0.0972957908 0.000667887931 0)
(0.0972294667 0.000659730891 0)
(0.0971629634 0.000648061959 0)
(0.0970966948 0.000632710381 0)
(0.097031112 0.000613533705 0)
(0.0969667004 0.000590420617 0)
(0.0969039758 0.000563292658 0)
(0.0968434816 0.000532105016 0)
(0.0967857856 0.00049684667 0)
(0.0967314784 0.000457540129 0)
(0.0966811696 0.00041424082 0)
(0.0966354861 0.00036703661 0)
(0.0965950679 0.000316048432 0)
(0.0965605677 0.000261430437 0)
(0.0965326604 0.000203376396 0)
(0.0965120278 0.000142131523 0)
(0.0964991965 7.79413193e-05 0)
(0.0964941867 1.10504337e-05 0)
(0.0964978031 -5.83282637e-05 0)
(0.0965112896 -0.00012982748 0)
(0.0965349722 -0.000203052503 0)
(0.0965690922 -0.000277610079 0)
(0.0966139751 -0.000353013731 0)
(0.096669859 -0.000428705522 0)
(0.096736855 -0.000504072681 0)
(0.0968149565 -0.000578449591 0)
(0.0969040363 -0.00065112842 0)
(0.0970038335 -0.000721371591 0)
(0.0971139479 -0.000788425217 0)
(0.0972338382 -0.000851536359 0)
(0.097362824 -0.000909973515 0)
(0.0975000916 -0.000963048845 0)
(0.0976447031 -0.00101014063 0)
(0.0977956117 -0.00105071421 0)
(0.0979516794 -0.00108433977 0)
(0.0981116991 -0.00111070577 0)
(0.0982744193 -0.0011296275 0)
(0.0984385706 -0.00114105068 0)
(0.0986028923 -0.00114505022 0)
(0.0987661586 -0.00114182463 0)
(0.0989272025 -0.00113168646 0)
(0.0990849372 -0.00111504943 0)
(0.0992383729 -0.00109241294 0)
(0.0993866312 -0.0010643447 0)
(0.099528953 -0.00103146252 0)
(0.0996647044 -0.000994415985 0)
(0.0997933769 -0.000953868858 0)
(0.099914585 -0.000910482812 0)
(0.100028061 -0.000864903049 0)
(0.100133645 -0.000817746074 0)
(0.10023128 -0.000769589737 0)
(0.100320995 -0.000720965658 0)
(0.100402897 -0.000672353826 0)
(0.100477159 -0.000624179185 0)
(0.100544011 -0.000576810267 0)
(0.100603727 -0.000530559101 0)
(0.100656622 -0.000485682087 0)
(0.100703036 -0.000442381765 0)
(0.10074333 -0.000400810655 0)
(0.100777879 -0.000361080877 0)
(0.100807067 -0.00032327214 0)
(0.100831288 -0.000287431083 0)
(0.100850938 -0.000253571497 0)
(0.100866392 -0.000221685129 0)
(0.100878003 -0.000191759706 0)
(0.100886131 -0.000163773802 0)
(0.100891135 -0.000137685758 0)
(0.100893344 -0.000113438885 0)
(0.100893044 -9.0966519e-05 0)
(0.100890512 -7.01817672e-05 0)
(0.100886055 -5.10053985e-05 0)
(0.100879972 -3.33558686e-05 0)
(0.100872564 -1.71524744e-05 0)
(0.100864206 -2.45125293e-06 0)
(0.100854964 1.08098521e-05 0)
(0.100844627 2.28349976e-05 0)
(0.100833258 3.36273807e-05 0)
(0.100821031 4.31819867e-05 0)
(0.100808042 5.16107685e-05 0)
(0.100794393 5.90258214e-05 0)
(0.100780203 6.55123606e-05 0)
(0.100765568 7.11514867e-05 0)
(0.100750576 7.6022643e-05 0)
(0.100735307 8.01993658e-05 0)
(0.100719838 8.37483356e-05 0)
(0.100704239 8.67295164e-05 0)
(0.100688576 8.91965893e-05 0)
(0.100672907 9.11975184e-05 0)
(0.100657283 9.27750101e-05 0)
(0.100641749 9.39671451e-05 0)
(0.100626346 9.48082188e-05 0)
(0.100611105 9.5329487e-05 0)
(0.100596055 9.55597102e-05 0)
(0.10058122 9.5525554e-05 0)
(0.100566619 9.5251861e-05 0)
(0.10055227 9.47617931e-05 0)
(0.100538189 9.40768924e-05 0)
(0.100524387 9.32171102e-05 0)
(0.100510876 9.22008267e-05 0)
(0.100497667 9.10448665e-05 0)
(0.100484766 8.97645189e-05 0)
(0.100472183 8.83735725e-05 0)
(0.100459924 8.68843705e-05 0)
(0.100447992 8.53078894e-05 0)
(0.100436393 8.36538385e-05 0)
(0.100425131 8.19307799e-05 0)
(0.100414206 8.01462616e-05 0)
(0.100403621 7.8306954e-05 0)
(0.100393376 7.64187811e-05 0)
(0.100383472 7.44870349e-05 0)
(0.100373908 7.2516463e-05 0)
(0.100364683 7.0511327e-05 0)
(0.100355796 6.8475428e-05 0)
(0.100347246 6.64120998e-05 0)
(0.100339031 6.43241753e-05 0)
(0.100331152 6.221391e-05 0)
(0.100323607 6.00829523e-05 0)
(0.100316393 5.79319088e-05 0)
(0.100309519 5.57616821e-05 0)
(0.100302952 5.35661897e-05 0)
(0.100296804 5.13656068e-05 0)
(0.100290697 4.90521948e-05 0)
(0.100286044 4.70933289e-05 0)
(0.100278363 4.33871338e-05 0)
(0.100001455 -1.88203168e-05 0)
(0.100008649 -2.56703532e-05 0)
(0.100017285 3.23100399e-06 0)
(0.100021018 6.61376174e-05 0)
(0.100013493 0.000153970244 0)
(0.0999904815 0.000253650074 0)
(0.0999509563 0.000352067899 0)
(0.0998959146 0.00043839988 0)
(0.0998277887 0.000504755341 0)
(0.0997501252 0.000546207657 0)
(0.0996671155 0.000560829117 0)
(0.0995830845 0.000549425794 0)
(0.099502126 0.000514633141 0)
(0.0994279267 0.000459896409 0)
(0.0993636758 0.000389291217 0)
(0.0993118875 0.000308423616 0)
(0.0992740235 0.000225509013 0)
(0.0992499829 0.000151358208 0)
(0.099237736 9.76552241e-05 0)
(0.0992334161 7.4074084e-05 0)
(0.0992318857 8.55450757e-05 0)
(0.0992274799 0.000130820466 0)
(0.0992148721 0.000202814074 0)
(0.0991900464 0.000290410195 0)
(0.0991509851 0.000380959293 0)
(0.0990978258 0.000462645991 0)
(0.0990325942 0.000526155685 0)
(0.0989586919 0.000565438288 0)
(0.0988802997 0.000577703032 0)
(0.0988018434 0.000562953413 0)
(0.098727596 0.00052339823 0)
(0.0986614009 0.000463008895 0)
(0.098606449 0.000387348369 0)
(0.098565037 0.00030359171 0)
(0.0985382752 0.000220475901 0)
(0.0985257761 0.000147838806 0)
(0.0985254668 9.55559075e-05 0)
(0.0985337438 7.1899073e-05 0)
(0.0985459569 8.15487086e-05 0)
(0.0985569435 0.000124095957 0)
(0.0985617052 0.000193637608 0)
(0.0985563501 0.000279802106 0)
(0.0985388822 0.00037000352 0)
(0.0985094884 0.000452311343 0)
(0.0984702561 0.000518096282 0)
(0.0984244383 0.000563649678 0)
(0.0983755236 0.000590311286 0)
(0.0983263943 0.000603165298 0)
(0.0982788036 0.000608878664 0)
(0.0982332707 0.000613517539 0)
(0.0981893376 0.000621073561 0)
(0.0981460207 0.000633040203 0)
(0.0981022569 0.000648910934 0)
(0.0980572038 0.000667148737 0)
(0.0980103439 0.000686119321 0)
(0.0979614383 0.000704654199 0)
(0.0979104099 0.000722174363 0)
(0.0978572364 0.000738512084 0)
(0.0978018923 0.000753640153 0)
(0.0977443419 0.000767468532 0)
(0.0976845615 0.000779766962 0)
(0.0976225679 0.000790187788 0)
(0.0975584364 0.000798329617 0)
(0.0974923068 0.00080379324 0)
(0.0974243818 0.000806209504 0)
(0.0973549211 0.000805242569 0)
(0.0972842369 0.000800585575 0)
(0.0972126902 0.000791957346 0)
(0.0971406893 0.000779103101 0)
(0.0970686864 0.000761798288 0)
(0.0969971751 0.00073985294 0)
(0.0969266867 0.000713114648 0)
(0.096857786 0.000681469675 0)
(0.0967910679 0.000644842664 0)
(0.0967271523 0.000603195597 0)
(0.0966666803 0.00055652647 0)
(0.0966103097 0.000504868115 0)
(0.0965587106 0.00044828746 0)
(0.0965125609 0.000386884941 0)
(0.0964725414 0.000320794425 0)
(0.0964393283 0.000250180042 0)
(0.0964135524 0.000175225886 0)
(0.0963958834 9.61515807e-05 0)
(0.0963873569 1.3330381e-05 0)
(0.0963885346 -7.25318934e-05 0)
(0.0963996487 -0.000161096566 0)
(0.0964213901 -0.000251956724 0)
(0.0964543203 -0.000344546034 0)
(0.09649882 -0.000438224479 0)
(0.0965551791 -0.000532288914 0)
(0.096623584 -0.00062596187 0)
(0.0967040934 -0.000718395052 0)
(0.0967966244 -0.00080868465 0)
(0.0969009401 -0.000895889272 0)
(0.0970166397 -0.000979050367 0)
(0.0971431541 -0.00105721596 0)
(0.0972797459 -0.00112946639 0)
(0.0974255158 -0.00119494077 0)
(0.0975794143 -0.0012528631 0)
(0.097740259 -0.00130256696 0)
(0.0979067575 -0.00134351729 0)
(0.0980775343 -0.00137532795 0)
(0.0982511608 -0.0013977739 0)
(0.0984261884 -0.00141079709 0)
(0.0986011813 -0.00141450584 0)
(0.0987747485 -0.00140916771 0)
(0.098945573 -0.00139519671 0)
(0.0991124378 -0.00137313574 0)
(0.0992742457 -0.0013436355 0)
(0.0994300352 -0.00130743121 0)
(0.09957899 -0.00126531838 0)
(0.099720443 -0.00121812883 0)
(0.0998538761 -0.00116670796 0)
(0.0999789151 -0.00111189401 0)
(0.100095322 -0.00105450002 0)
(0.100202982 -0.000995298725 0)
(0.100301896 -0.000935010425 0)
(0.100392159 -0.000874294036 0)
(0.100473952 -0.00081374081 0)
(0.100547529 -0.000753870496 0)
(0.100613196 -0.000695130199 0)
(0.100671307 -0.000637895787 0)
(0.100722248 -0.000582474956 0)
(0.10076643 -0.000529111286 0)
(0.100804278 -0.000477988851 0)
(0.100836228 -0.000429237262 0)
(0.10086272 -0.000382938023 0)
(0.100884187 -0.000339133254 0)
(0.100901053 -0.000297834323 0)
(0.100913729 -0.000259027646 0)
(0.100922614 -0.000222667767 0)
(0.100928089 -0.000188686089 0)
(0.100930518 -0.000157006285 0)
(0.100930243 -0.000127546268 0)
(0.100927609 -0.000100215883 0)
(0.100922931 -7.49113164e-05 0)
(0.100916478 -5.15435668e-05 0)
(0.100908486 -3.00751548e-05 0)
(0.100898988 -1.05012035e-05 0)
(0.100888071 7.29646841e-06 0)
(0.100876116 2.32254094e-05 0)
(0.100863366 3.73794969e-05 0)
(0.100849879 4.99474973e-05 0)
(0.100835736 6.10533881e-05 0)
(0.100821026 7.08205034e-05 0)
(0.100805834 7.93751803e-05 0)
(0.100790249 8.68268876e-05 0)
(0.100774356 9.32733487e-05 0)
(0.100758232 9.88061294e-05 0)
(0.100741946 0.000103510249 0)
(0.100725562 0.000107463457 0)
(0.10070914 0.000110736519 0)
(0.100692729 0.000113393987 0)
(0.100676378 0.00011549481 0)
(0.100660126 0.000117092526 0)
(0.100644012 0.00011823541 0)
(0.100628071 0.000118966888 0)
(0.100612331 0.000119326077 0)
(0.10059682 0.000119348299 0)
(0.100581561 0.000119065585 0)
(0.100566572 0.000118507143 0)
(0.100551872 0.000117699746 0)
(0.100537472 0.000116668018 0)
(0.100523385 0.000115434643 0)
(0.100509619 0.000114020512 0)
(0.100496181 0.000112444828 0)
(0.100483079 0.000110725188 0)
(0.100470315 0.000108877658 0)
(0.100457894 0.000106916836 0)
(0.100445818 0.000104855932 0)
(0.10043409 0.000102706838 0)
(0.10042271 0.000100480215 0)
(0.100411678 9.81855745e-05 0)
(0.100400996 9.58313638e-05 0)
(0.100390663 9.34250487e-05 0)
(0.100380678 9.09731934e-05 0)
(0.100371041 8.84815343e-05 0)
(0.10036175 8.59550462e-05 0)
(0.100352803 8.3397997e-05 0)
(0.1003442 8.08139834e-05 0)
(0.100335939 7.82059494e-05 0)
(0.100328017 7.55761629e-05 0)
(0.100320434 7.29262629e-05 0)
(0.100313184 7.0256818e-05 0)
(0.100306276 6.75690796e-05 0)
(0.100299673 6.4856135e-05 0)
(0.100293488 6.21436989e-05 0)
(0.100287321 5.93008149e-05 0)
(0.100282616 5.69004739e-05 0)
(0.100274659 5.23641316e-05 0)
(0.100001298 -2.41811633e-05 0)
(0.100007997 -3.67233578e-05 0)
(0.100016892 -7.05455185e-06 0)
(0.100020946 6.34815348e-05 0)
(0.100013119 0.000164464964 0)
(0.0999898574 0.000280197665 0)
(0.0999501196 0.000394910858 0)
(0.0998948274 0.000495797437 0)
(0.0998263685 0.000573699948 0)
(0.0997482359 0.000622932623 0)
(0.0996645755 0.000641192306 0)
(0.0995796871 0.000629247544 0)
(0.0994976595 0.000589949484 0)
(0.0994221928 0.000527107657 0)
(0.0993565144 0.000445307577 0)
(0.0993032128 0.000350955539 0)
(0.0992638837 0.000253544809 0)
(0.0992386369 0.000165657378 0)
(0.0992256656 0.000101003 0)
(0.0992211359 7.10860718e-05 0)
(0.0992196056 8.19506898e-05 0)
(0.0992150631 0.000132418287 0)
(0.0992021768 0.00021442724 0)
(0.099177148 0.000315124049 0)
(0.0991381065 0.000419778262 0)
(0.0990851859 0.000514555052 0)
(0.0990203049 0.000588484431 0)
(0.0989467268 0.000634390944 0)
(0.0988685233 0.000648914759 0)
(0.0987900675 0.00063196703 0)
(0.0987156319 0.00058602136 0)
(0.0986490913 0.000515577821 0)
(0.0985936828 0.000426962752 0)
(0.0985517744 0.000328375797 0)
(0.0985246031 0.000229864576 0)
(0.0985120381 0.000142835669 0)
(0.0985124216 7.87476532e-05 0)
(0.0985223461 4.71430237e-05 0)
(0.0985368368 5.36602032e-05 0)
(0.0985502492 9.81800786e-05 0)
(0.0985573736 0.000174178055 0)
(0.0985543517 0.000269961229 0)
(0.0985392418 0.000370978959 0)
(0.0985121933 0.000463146096 0)
(0.0984751884 0.000536114023 0)
(0.0984313895 0.000585314611 0)
(0.0983842583 0.000612210536 0)
(0.0983367081 0.000622807887 0)
(0.0982905483 0.00062509143 0)
(0.0982463451 0.000626387546 0)
(0.098203658 0.00063155531 0)
(0.0981614867 0.000642439633 0)
(0.0981187272 0.000658449833 0)
(0.0980744847 0.000677726555 0)
(0.0980281911 0.000698279629 0)
(0.0979795626 0.000718683388 0)
(0.0979284859 0.000738236547 0)
(0.0978749089 0.000756748976 0)
(0.0978187813 0.000774210012 0)
(0.0977600473 0.000790536061 0)
(0.0976986691 0.000805471938 0)
(0.0976346549 0.000818616313 0)
(0.0975680791 0.000829498815 0)
(0.0974990884 0.000837648504 0)
(0.0974278997 0.000842628786 0)
(0.0973547943 0.000844043469 0)
(0.0972801131 0.000841530658 0)
(0.097204252 0.000834757279 0)
(0.0971276585 0.000823418985 0)
(0.0970508276 0.000807244161 0)
(0.0969742965 0.000785998841 0)
(0.0968986394 0.000759490301 0)
(0.0968244616 0.000727568767 0)
(0.0967523952 0.000690127733 0)
(0.0966830948 0.000647103472 0)
(0.0966172348 0.000598474171 0)
(0.0965555071 0.000544258983 0)
(0.0964986183 0.000484517295 0)
(0.0964472876 0.000419348502 0)
(0.0964022434 0.000348893686 0)
(0.0963642207 0.000273338642 0)
(0.0963339632 0.000192920744 0)
(0.0963121982 0.00010796069 0)
(0.0962994714 1.88046146e-05 0)
(0.0962965196 -7.43864744e-05 0)
(0.0963042373 -0.000171076066 0)
(0.0963232327 -0.000270706219 0)
(0.0963540396 -0.000372687369 0)
(0.0963971566 -0.00047632038 0)
(0.0964529853 -0.000580800574 0)
(0.0965218031 -0.000685228988 0)
(0.0966037478 -0.00078862005 0)
(0.0966988 -0.000889913715 0)
(0.0968067661 -0.000987993511 0)
(0.096927264 -0.00108171009 0)
(0.0970597135 -0.00116991013 0)
(0.0972033333 -0.0012514696 0)
(0.097357145 -0.00132532956 0)
(0.0975199854 -0.00139053198 0)
(0.0976905262 -0.00144625342 0)
(0.0978673017 -0.00149183408 0)
(0.098048743 -0.00152680061 0)
(0.0982332166 -0.00155088117 0)
(0.0984190657 -0.00156401217 0)
(0.0986046517 -0.00156633644 0)
(0.0987883944 -0.0015581933 0)
(0.0989688073 -0.00154010129 0)
(0.0991445288 -0.00151273493 0)
(0.0993143461 -0.00147689715 0)
(0.0994772123 -0.00143348902 0)
(0.0996322561 -0.00138347867 0)
(0.0997787854 -0.00132787086 0)
(0.099916284 -0.00126767857 0)
(0.100044404 -0.00120389763 0)
(0.100162953 -0.00113748507 0)
(0.100271881 -0.00106934154 0)
(0.10037126 -0.00100029781 0)
(0.100461271 -0.00093110536 0)
(0.100542181 -0.000862430622 0)
(0.100614331 -0.00079485245 0)
(0.100678118 -0.000728862432 0)
(0.100733979 -0.000664867454 0)
(0.100782381 -0.0006031939 0)
(0.100823809 -0.000544093222 0)
(0.100858754 -0.000487748805 0)
(0.100887712 -0.000434284119 0)
(0.100911167 -0.00038377115 0)
(0.100929595 -0.000336237702 0)
(0.100943456 -0.000291673923 0)
(0.10095319 -0.000250039121 0)
(0.100959215 -0.000211268515 0)
(0.100961927 -0.000175280819 0)
(0.100961698 -0.000141983477 0)
(0.100958876 -0.000111275212 0)
(0.100953769 -8.30488088e-05 0)
(0.100946656 -5.72041845e-05 0)
(0.100937764 -3.36303794e-05 0)
(0.100927297 -1.21921057e-05 0)
(0.100915647 7.23995783e-06 0)
(0.10090308 2.48214084e-05 0)
(0.100889634 4.06806934e-05 0)
(0.100875422 5.48703503e-05 0)
(0.100860539 6.74850725e-05 0)
(0.100845084 7.86299583e-05 0)
(0.100829154 8.8411467e-05 0)
(0.100812838 9.69400976e-05 0)
(0.100796218 0.000104321731 0)
(0.100779373 0.000110654911 0)
(0.100762373 0.000116032467 0)
(0.100745285 0.000120541482 0)
(0.100728166 0.000124262564 0)
(0.100711075 0.000127269654 0)
(0.100694061 0.000129630326 0)
(0.100677171 0.000131406363 0)
(0.100660444 0.00013265434 0)
(0.100643912 0.000133426077 0)
(0.100627605 0.000133768974 0)
(0.100611547 0.000133726306 0)
(0.100595757 0.000133337491 0)
(0.100580252 0.000132638375 0)
(0.100565047 0.000131661509 0)