/*--------------------------------*- C++ -*----------------------------------*\
| =========                 |                                                 |
| \\      /  F ield         | OpenFOAM: The Open Source CFD Toolbox           |
|  \\    /   O peration     | Version:  v2012                                 |
|   \\  /    A nd           | Website:  www.openfoam.com                      |
|    \\/     M anipulation  |                                                 |
\*---------------------------------------------------------------------------*/
FoamFile
{
    version     2.0;
    format      ascii;
    class       volVectorField;
    location    "2.44";
    object      H;
}
// * * * * * * * * * * * * * * * * * * * * * * * * * * * * * * * * * * * * * //

dimensions      [0 1 -2 0 0 0 0];


internalField   nonuniform List<vector> 
28416
(
(224.78801 0.0272400504 0)
(224.758621 0.0924816947 0)
(224.697872 0.167485813 0)
(224.600488 0.245590132 0)
(224.470459 0.317747021 0)
(224.313718 0.376180982 0)
(224.136849 0.415232123 0)
(223.947511 0.431724684 0)
(223.754117 0.425473542 0)
(223.564726 0.398807382 0)
(223.386368 0.355148706 0)
(223.225103 0.298114839 0)
(223.086178 0.232082808 0)
(222.973593 0.163458687 0)
(222.888956 0.101098733 0)
(222.830058 0.0549655699 0)
(222.789998 0.033773781 0)
(222.758469 0.0428628617 0)
(222.724062 0.08212707 0)
(222.675145 0.14662615 0)
(222.602812 0.228732107 0)
(222.50457 0.318653178 0)
(222.382795 0.405382465 0)
(222.241666 0.479040834 0)
(222.086736 0.532390194 0)
(221.924942 0.561040827 0)
(221.763625 0.56333822 0)
(221.609634 0.540244633 0)
(221.469056 0.495098344 0)
(221.347087 0.433316201 0)
(221.247743 0.36214709 0)
(221.173427 0.290399727 0)
(221.124631 0.227916946 0)
(221.099077 0.18444402 0)
(221.091325 0.168454472 0)
(221.09386 0.18555842 0)
(221.098274 0.236788218 0)
(221.096467 0.317979506 0)
(221.08201 0.420239165 0)
(221.051231 0.531696844 0)
(221.003709 0.640112494 0)
(220.941963 0.73556666 0)
(220.870455 0.812405448 0)
(220.794208 0.869860798 0)
(220.717514 0.911242763 0)
(220.643077 0.942116541 0)
(220.571787 0.968208724 0)
(220.503046 0.993788467 0)
(220.435408 1.02096182 0)
(220.36725 1.04987726 0)
(220.297225 1.0794903 0)
(220.224445 1.10841772 0)
(220.148429 1.13552821 0)
(220.068939 1.16014904 0)
(219.985831 1.18197499 0)
(219.898965 1.20085736 0)
(219.808203 1.21662573 0)
(219.713436 1.22901003 0)
(219.614632 1.23765165 0)
(219.511866 1.24215551 0)
(219.405325 1.24213975 0)
(219.295315 1.23726317 0)
(219.182248 1.22723226 0)
(219.06664 1.21179818 0)
(218.949106 1.19075314 0)
(218.830356 1.16392958 0)
(218.711184 1.13120228 0)
(218.592464 1.09249172 0)
(218.475137 1.047768 0)
(218.360202 0.99705503 0)
(218.24871 0.940434736 0)
(218.141757 0.878050542 0)
(218.04048 0.810108336 0)
(217.94606 0.736874257 0)
(217.859723 0.658665481 0)
(217.782736 0.57583644 0)
(217.716412 0.488752827 0)
(217.662064 0.397752379 0)
(217.620905 0.303150777 0)
(217.593955 0.205289891 0)
(217.581772 0.104625461 0)
(217.584417 0.00220778645 0)
(217.606661 -0.100265857 0)
(217.649226 -0.203763893 0)
(217.711574 -0.308325854 0)
(217.79362 -0.413302129 0)
(217.895723 -0.518030081 0)
(218.01798 -0.621835232 0)
(218.160235 -0.723979296 0)
(218.322166 -0.82369014 0)
(218.503246 -0.92017333 0)
(218.702716 -1.01260913 0)
(218.919607 -1.10016115 0)
(219.152753 -1.18199699 0)
(219.400808 -1.25731597 0)
(219.662265 -1.32538036 0)
(219.935478 -1.38554516 0)
(220.218678 -1.4372819 0)
(220.509996 -1.48019394 0)
(220.807488 -1.51402373 0)
(221.109165 -1.53865376 0)
(221.413024 -1.55410354 0)
(221.717081 -1.56052376 0)
(222.019408 -1.55818844 0)
(222.318159 -1.54748482 0)
(222.611601 -1.52890117 0)
(222.898135 -1.50301216 0)
(223.176313 -1.4704627 0)
(223.444852 -1.43195059 0)
(223.702643 -1.38820881 0)
(223.94875 -1.33998835 0)
(224.182415 -1.28804205 0)
(224.403048 -1.23311 0)
(224.610218 -1.17590667 0)
(224.803643 -1.11710902 0)
(224.983162 -1.05734509 0)
(225.1487 -0.997178529 0)
(225.300279 -0.93707694 0)
(225.438142 -0.877413736 0)
(225.562759 -0.818533045 0)
(225.674676 -0.760772627 0)
(225.774428 -0.704434319 0)
(225.862561 -0.649769886 0)
(225.939613 -0.596971247 0)
(226.006159 -0.546143271 0)
(226.062828 -0.497351501 0)
(226.11028 -0.450645445 0)
(226.149172 -0.406058299 0)
(226.180154 -0.363605445 0)
(226.203856 -0.32328427 0)
(226.220885 -0.285071173 0)
(226.231821 -0.248911445 0)
(226.237213 -0.214723372 0)
(226.2376 -0.182402569 0)
(226.233526 -0.151829163 0)
(226.22556 -0.122884377 0)
(226.214323 -0.0954811084 0)
(226.200506 -0.0696221012 0)
(226.184826 -0.0454968835 0)
(226.167979 -0.0236969731 0)
(226.150117 -0.00481558346 0)
(226.130441 0.0112273339 0)
(226.108146 0.0249828088 0)
(226.083255 0.0369972332 0)
(226.056246 0.0476399814 0)
(226.027639 0.0571044344 0)
(225.997785 0.0655107228 0)
(225.966902 0.0729774919 0)
(225.935192 0.079618122 0)
(225.902873 0.0855248631 0)
(225.870138 0.0907699388 0)
(225.837158 0.0954094798 0)
(225.804088 0.0994847851 0)
(225.771058 0.103025752 0)
(225.738175 0.106056402 0)
(225.705527 0.108599327 0)
(225.673186 0.110678195 0)
(225.64121 0.112318945 0)
(225.609649 0.113550031 0)
(225.578545 0.11440189 0)
(225.547936 0.114906007 0)
(225.517855 0.115093894 0)
(225.488335 0.114996142 0)
(225.459405 0.114641594 0)
(225.431092 0.114056699 0)
(225.40342 0.113265098 0)
(225.376413 0.112287468 0)
(225.350089 0.111141585 0)
(225.324465 0.109842589 0)
(225.299554 0.108403357 0)
(225.275366 0.106834988 0)
(225.251911 0.105147299 0)
(225.229193 0.103349292 0)
(225.207214 0.101449526 0)
(225.185978 0.0994563947 0)
(225.165485 0.0973782634 0)
(225.145734 0.0952234971 0)
(225.126725 0.0930003928 0)
(225.108457 0.0907170398 0)
(225.090931 0.0883811426 0)
(225.074145 0.0859998401 0)
(225.058102 0.0835795247 0)
(225.042804 0.0811257649 0)
(225.028248 0.0786427859 0)
(225.014457 0.0761347636 0)
(225.001381 0.0735979312 0)
(224.989234 0.0710532447 0)
(224.977344 0.0683843185 0)
(224.96831 0.0660705137 0)
(224.950973 0.061714993 0)
(224.791889 0.04984929 0)
(224.771504 0.17526439 0)
(224.720585 0.318689139 0)
(224.628915 0.465109417 0)
(224.499513 0.598633076 0)
(224.339065 0.706369616 0)
(224.154959 0.779174991 0)
(223.955747 0.812209689 0)
(223.751036 0.805534884 0)
(223.550249 0.763080451 0)
(223.361733 0.690252735 0)
(223.192704 0.592572868 0)
(223.049309 0.476816939 0)
(222.936008 0.353429169 0)
(222.854241 0.237572642 0)
(222.80129 0.147214885 0)
(222.770199 0.0987795436 0)
(222.750243 0.102581458 0)
(222.729127 0.159627298 0)
(222.69518 0.260938666 0)
(222.638144 0.391289317 0)
(222.551438 0.532604243 0)
(222.434019 0.66645922 0)
(222.289594 0.777219915 0)
(222.124971 0.854075936 0)
(221.948874 0.89117432 0)
(221.770799 0.88696729 0)
(221.599963 0.8435158 0)
(221.444669 0.765893004 0)
(221.311981 0.66183695 0)
(221.207396 0.541704738 0)
(221.134356 0.418449825 0)
(221.093628 0.307113948 0)
(221.082644 0.223252507 0)
(221.095242 0.180860226 0)
(221.122095 0.189480878 0)
(221.152006 0.251270917 0)
(221.173723 0.359699015 0)
(221.177843 0.50049204 0)
(221.158617 0.654653722 0)
(221.114943 0.802769542 0)
(221.050157 0.929383212 0)
(220.970723 1.02609649 0)
(220.884232 1.0924611 0)
(220.797381 1.13453678 0)
(220.714541 1.16183003 0)
(220.637268 1.18384927 0)
(220.564723 1.20749411 0)
(220.494672 1.23598077 0)
(220.424563 1.26927644 0)
(220.352305 1.30543781 0)
(220.276578 1.34206235 0)
(220.196754 1.37726542 0)
(220.112618 1.40999477 0)
(220.024093 1.43984227 0)
(219.931089 1.46666266 0)
(219.833472 1.49025963 0)
(219.73112 1.5102509 0)
(219.62399 1.52608823 0)
(219.512168 1.53714756 0)
(219.395878 1.54281362 0)
(219.275484 1.54252588 0)
(219.151471 1.53578937 0)
(219.024438 1.52216947 0)
(218.895084 1.50128652 0)
(218.764212 1.47281639 0)
(218.63271 1.43649569 0)
(218.501553 1.39212789 0)
(218.371788 1.33958768 0)
(218.244524 1.27882265 0)
(218.120928 1.2098529 0)
(218.00221 1.13276896 0)
(217.88962 1.04772831 0)
(217.78444 0.954950862 0)
(217.687969 0.854711949 0)
(217.601513 0.74733408 0)
(217.52636 0.633175336 0)
(217.463767 0.512614562 0)
(217.414957 0.38606525 0)
(217.381132 0.254049538 0)
(217.363792 0.117302248 0)
(217.364889 -0.0232681758 0)
(217.386317 -0.166163192 0)
(217.427196 -0.311314114 0)
(217.488673 -0.458190611 0)
(217.571321 -0.605857943 0)
(217.675457 -0.753350575 0)
(217.801253 -0.899652312 0)
(217.948662 -1.04364567 0)
(218.117413 -1.18414438 0)
(218.306996 -1.31992425 0)
(218.516655 -1.44974259 0)
(218.745386 -1.57236512 0)
(218.991953 -1.68659761 0)
(219.254896 -1.79131712 0)
(219.532553 -1.88550232 0)
(219.82308 -1.96826186 0)
(220.124478 -2.03885958 0)
(220.434621 -2.096735 0)
(220.751294 -2.14151841 0)
(221.072228 -2.17303985 0)
(221.395149 -2.19133132 0)
(221.717808 -2.19662235 0)
(222.038033 -2.18932931 0)
(222.353757 -2.17003933 0)
(222.663057 -2.13948979 0)
(222.964172 -2.09854452 0)
(223.255532 -2.04816809 0)
(223.535766 -1.98939889 0)
(223.803709 -1.92332255 0)
(224.058406 -1.85104623 0)
(224.29911 -1.77367481 0)
(224.525268 -1.69228929 0)
(224.736513 -1.60792771 0)
(224.93265 -1.52156762 0)
(225.113636 -1.43410988 0)
(225.279564 -1.34635951 0)
(225.430662 -1.2589918 0)
(225.567298 -1.17255667 0)
(225.68997 -1.08755331 0)
(225.799255 -1.0044558 0)
(225.895776 -0.923678433 0)
(225.980194 -0.845560757 0)
(226.053207 -0.770361283 0)
(226.115528 -0.69824372 0)
(226.167845 -0.629311991 0)
(226.210849 -0.563631851 0)
(226.245233 -0.501235674 0)
(226.271683 -0.442124758 0)
(226.290874 -0.38627283 0)
(226.303472 -0.333632047 0)
(226.310122 -0.284140977 0)
(226.31143 -0.237714628 0)
(226.307982 -0.194244903 0)
(226.300338 -0.153611722 0)
(226.289031 -0.115705697 0)
(226.274536 -0.0804720871 0)
(226.257223 -0.0479625842 0)
(226.237121 -0.0181105498 0)
(226.214599 0.00917798438 0)
(226.190464 0.0334206753 0)
(226.165069 0.054402321 0)
(226.13825 0.072501833 0)
(226.109885 0.0882459542 0)
(226.080043 0.102057036 0)
(226.048956 0.114189043 0)
(226.016889 0.124799827 0)
(225.984053 0.134036251 0)
(225.95062 0.142041907 0)
(225.916758 0.148939941 0)
(225.882623 0.154835358 0)
(225.848354 0.159821746 0)
(225.814075 0.163981424 0)
(225.7799 0.167385439 0)
(225.745925 0.170095947 0)
(225.712238 0.172168396 0)
(225.678912 0.173652793 0)
(225.64601 0.174594864 0)
(225.613588 0.175037276 0)
(225.581689 0.175020534 0)
(225.550355 0.174583385 0)
(225.519617 0.173762857 0)
(225.489504 0.17259414 0)
(225.460042 0.171110407 0)
(225.431251 0.169342611 0)
(225.403151 0.167319315 0)
(225.375759 0.165066595 0)
(225.349086 0.162608038 0)
(225.323145 0.159964843 0)
(225.297947 0.157155981 0)
(225.273497 0.154198415 0)
(225.249801 0.151107349 0)
(225.226864 0.147896479 0)
(225.204687 0.144578222 0)
(225.18327 0.141163921 0)
(225.162616 0.137663995 0)
(225.142721 0.134088044 0)
(225.123585 0.130444902 0)
(225.105208 0.126742647 0)
(225.087587 0.122988568 0)
(225.070722 0.119189097 0)
(225.054611 0.115349678 0)
(225.039255 0.111474687 0)
(225.02465 0.107566711 0)
(225.010815 0.103628185 0)
(224.99769 0.0996506388 0)
(224.985488 0.0956609711 0)
(224.973481 0.0914915224 0)
(224.964332 0.0878613744 0)
(224.946343 0.0812568786 0)
(224.791092 0.054133672 0)
(224.767018 0.198953747 0)
(224.712912 0.367270129 0)
(224.61999 0.538745067 0)
(224.490977 0.695102681 0)
(224.331955 0.821899888 0)
(224.149852 0.908549187 0)
(223.952774 0.949288283 0)
(223.749888 0.944001379 0)
(223.550249 0.896953913 0)
(223.361906 0.814012834 0)
(223.191812 0.701147242 0)
(223.045977 0.565856079 0)
(222.929067 0.420079236 0)
(222.843292 0.281490397 0)
(222.786901 0.171315033 0)
(222.753249 0.10917911 0)
(222.731579 0.107390626 0)
(222.708538 0.167825842 0)
(222.671115 0.281392085 0)
(222.61011 0.430233886 0)
(222.521088 0.592386527 0)
(222.403874 0.746208912 0)
(222.261815 0.873486093 0)
(222.100928 0.961330092 0)
(221.929061 1.00269197 0)
(221.754953 0.995774414 0)
(221.587331 0.943043536 0)
(221.434255 0.850350491 0)
(221.302712 0.726440678 0)
(221.198216 0.5828926 0)
(221.124294 0.434169434 0)
(221.081879 0.297183509 0)
(221.068748 0.189811531 0)
(221.079248 0.128266253 0)
(221.104562 0.123695426 0)
(221.133845 0.179326907 0)
(221.156182 0.288838491 0)
(221.162542 0.436773942 0)
(221.147245 0.601574012 0)
(221.108814 0.760527937 0)
(221.049901 0.895073068 0)
(220.976214 0.994770096 0)
(220.894739 1.05870863 0)
(220.81185 1.09402117 0)
(220.731903 1.11226696 0)
(220.656665 1.12518807 0)
(220.585605 1.14139664 0)
(220.516761 1.1649425 0)
(220.44774 1.19578911 0)
(220.376476 1.23146968 0)
(220.301573 1.26892614 0)
(220.222283 1.30576886 0)
(220.138272 1.34069447 0)
(220.049379 1.37325056 0)
(219.955461 1.40334056 0)
(219.856359 1.43080857 0)
(219.751943 1.45525476 0)
(219.642169 1.47605532 0)
(219.52713 1.49247702 0)
(219.407063 1.50378717 0)
(219.282356 1.50931352 0)
(219.153528 1.50845789 0)
(219.02122 1.50068819 0)
(218.886188 1.48552982 0)
(218.749291 1.46256489 0)
(218.611484 1.43143773 0)
(218.473808 1.39186204 0)
(218.337378 1.34362659 0)
(218.203366 1.28659861 0)
(218.072996 1.2207254 0)
(217.947532 1.14603454 0)
(217.828271 1.06263264 0)
(217.71654 0.97070207 0)
(217.613688 0.870497083 0)
(217.521079 0.762338573 0)
(217.440091 0.646614465 0)
(217.372101 0.523788905 0)
(217.318496 0.39440471 0)
(217.280639 0.259085541 0)
(217.259419 0.118498785 0)
(217.25589 -0.026781077 0)
(217.27307 -0.17626684 0)
(217.311019 -0.329039652 0)
(217.370341 -0.48430593 0)
(217.451557 -0.641154104 0)
(217.55517 -0.798507683 0)
(217.681464 -0.955186002 0)
(217.830467 -1.10991817 0)
(218.00197 -1.26135683 0)
(218.195512 -1.40810067 0)
(218.41036 -1.54871634 0)
(218.645513 -1.68176603 0)
(218.899699 -1.80584247 0)
(219.171388 -1.91960861 0)
(219.45881 -2.02183895 0)
(219.759976 -2.11145937 0)
(220.072713 -2.18758204 0)
(220.394699 -2.24953234 0)
(220.723511 -2.296867 0)
(221.056666 -2.32938311 0)
(221.391677 -2.34711874 0)
(221.726098 -2.35034577 0)
(222.057568 -2.33955583 0)
(222.383858 -2.31544016 0)
(222.702903 -2.27886426 0)
(223.012831 -2.23083869 0)
(223.311989 -2.17248728 0)
(223.598949 -2.10501434 0)
(223.872523 -2.0296721 0)
(224.131757 -1.9477298 0)
(224.375929 -1.86044523 0)
(224.604533 -1.76903948 0)
(224.817268 -1.67467501 0)
(225.01402 -1.57843726 0)
(225.194838 -1.48131963 0)
(225.359919 -1.38421191 0)
(225.509594 -1.28789187 0)
(225.644318 -1.19302733 0)
(225.76466 -1.10019366 0)
(225.87127 -1.00988394 0)
(225.964847 -0.92250655 0)
(226.046121 -0.838386918 0)
(226.115839 -0.75777549 0)
(226.174755 -0.680865628 0)
(226.223618 -0.60778275 0)
(226.263169 -0.538588447 0)
(226.294143 -0.47329309 0)
(226.317256 -0.411866306 0)
(226.333197 -0.354246105 0)
(226.342614 -0.3003506 0)
(226.346129 -0.250093687 0)
(226.344344 -0.203381519 0)
(226.337839 -0.160115133 0)
(226.327158 -0.120194932 0)
(226.312796 -0.0835151256 0)
(226.295185 -0.0499252032 0)
(226.275032 -0.0191855705 0)
(226.25335 0.00872405132 0)
(226.230261 0.0341642179 0)
(226.205252 0.0573299628 0)
(226.178428 0.0781061453 0)
(226.149982 0.0964824543 0)
(226.120049 0.112604937 0)
(226.088789 0.126704457 0)
(226.056414 0.13901028 0)
(226.023151 0.14970381 0)
(225.989201 0.158939566 0)
(225.954737 0.166864202 0)
(225.919931 0.173609805 0)
(225.884943 0.179288631 0)
(225.849918 0.183996271 0)
(225.814982 0.187815436 0)
(225.780243 0.190818854 0)
(225.74579 0.1930723 0)
(225.711696 0.194637032 0)
(225.678023 0.195571008 0)
(225.644818 0.195929269 0)
(225.612127 0.19576396 0)
(225.579987 0.195124223 0)
(225.548432 0.194056077 0)
(225.51749 0.19260231 0)
(225.487191 0.19080241 0)
(225.457557 0.188692513 0)
(225.428611 0.186305397 0)
(225.400371 0.183670548 0)
(225.372853 0.180814297 0)
(225.346072 0.177760022 0)
(225.320038 0.174528417 0)
(225.29476 0.17113781 0)
(225.270243 0.167604491 0)
(225.246493 0.163943057 0)
(225.223511 0.160166726 0)
(225.201298 0.156287591 0)
(225.179853 0.152316818 0)
(225.159174 0.148264759 0)
(225.13926 0.144141002 0)
(225.120107 0.139954364 0)
(225.101714 0.135712849 0)
(225.084079 0.131423567 0)
(225.067199 0.127092632 0)
(225.051072 0.12272502 0)
(225.035699 0.118324505 0)
(225.021074 0.113892994 0)
(225.007212 0.109432468 0)
(224.994056 0.104933866 0)
(224.981814 0.100429213 0)
(224.969775 0.0957384229 0)
(224.960591 0.0916785282 0)
(224.942829 0.0843751192 0)
(224.791768 0.0675528766 0)
(224.770829 0.251356651 0)
(224.720228 0.467920687 0)
(224.629602 0.689857625 0)
(224.500739 0.892768524 0)
(224.339467 1.05788397 0)
(224.152908 1.17151895 0)
(223.94964 1.22608496 0)
(223.739535 1.2212137 0)
(223.532557 1.16224899 0)
(223.337762 1.05673263 0)
(223.16308 0.912419563 0)
(223.015266 0.738972392 0)
(222.899198 0.551564975 0)
(222.816527 0.372561484 0)
(222.764516 0.228771265 0)
(222.735836 0.145263703 0)
(222.719647 0.138370656 0)
(222.703637 0.21060907 0)
(222.675141 0.350637621 0)
(222.62272 0.53654303 0)
(222.539215 0.740715267 0)
(222.423077 0.935300012 0)
(222.277628 1.09673864 0)
(222.109746 1.20840183 0)
(221.928544 1.26120248 0)
(221.744118 1.25277883 0)
(221.566526 1.18613211 0)
(221.405074 1.06844183 0)
(221.267814 0.910464628 0)
(221.16107 0.726542048 0)
(221.088849 0.534773379 0)
(221.052144 0.356557445 0)
(221.048277 0.214767526 0)
(221.070628 0.130407236 0)
(221.109346 0.118420923 0)
(221.152794 0.183489433 0)
(221.188933 0.317288162 0)
(221.207204 0.499840563 0)
(221.200788 0.703657297 0)
(221.167859 0.899927774 0)
(221.111407 1.0651706 0)
(221.03792 1.18622919 0)
(220.955328 1.26201747 0)
(220.870874 1.30162911 0)
(220.789529 1.31977349 0)
(220.713361 1.33141619 0)
(220.641852 1.34757883 0)
(220.572854 1.37350073 0)
(220.503695 1.4092139 0)
(220.432033 1.45162552 0)
(220.356247 1.49685089 0)
(220.275431 1.5418269 0)
(220.18915 1.58486257 0)
(220.097173 1.62535637 0)
(219.999307 1.66317444 0)
(219.895356 1.69812117 0)
(219.785162 1.729698 0)
(219.66867 1.75712171 0)
(219.545975 1.77946574 0)
(219.417341 1.79579859 0)
(219.283194 1.80526056 0)
(219.144111 1.80708252 0)
(219.000802 1.80057691 0)
(218.854101 1.78512794 0)
(218.704952 1.76019151 0)
(218.554403 1.72530302 0)
(218.403595 1.68008662 0)
(218.253747 1.62426134 0)
(218.106147 1.55764249 0)
(217.96214 1.48013953 0)
(217.823118 1.39175165 0)
(217.690503 1.29256271 0)
(217.565742 1.1827364 0)
(217.450292 1.06251222 0)
(217.345611 0.932202712 0)
(217.253149 0.792191081 0)
(217.174339 0.642928473 0)
(217.110583 0.48493108 0)
(217.063242 0.318770298 0)
(217.033827 0.145098996 0)
(217.024362 -0.0350366876 0)
(217.037379 -0.220399963 0)
(217.071959 -0.410127614 0)
(217.129176 -0.603175816 0)
(217.209881 -0.7982797 0)
(217.314681 -0.99405784 0)
(217.443966 -1.1890146 0)
(217.597889 -1.38152846 0)
(217.77633 -1.56987367 0)
(217.978876 -1.75225519 0)
(218.204796 -1.92684494 0)
(218.453043 -2.09182267 0)
(218.722243 -2.24542148 0)
(219.010711 -2.38597476 0)
(219.316475 -2.51196241 0)
(219.637298 -2.62205498 0)
(219.970724 -2.71515383 0)
(220.314123 -2.79042482 0)
(220.664743 -2.84732343 0)
(221.019768 -2.88560967 0)
(221.376379 -2.90535163 0)
(221.731812 -2.90691772 0)
(222.083414 -2.89095835 0)
(222.428694 -2.85837866 0)
(222.765364 -2.81030411 0)
(223.091372 -2.74804113 0)
(223.404929 -2.67303485 0)
(223.704521 -2.58682606 0)
(223.988912 -2.49100911 0)
(224.257144 -2.3871922 0)
(224.508528 -2.27696164 0)
(224.742624 -2.16185036 0)
(224.959223 -2.04331151 0)
(225.158325 -1.92269712 0)
(225.340113 -1.80124173 0)
(225.50493 -1.68005073 0)
(225.653259 -1.56009313 0)
(225.785702 -1.44220243 0)
(225.902957 -1.32708804 0)
(226.005795 -1.21534658 0)
(226.095029 -1.10746705 0)
(226.171503 -1.00383598 0)
(226.236068 -0.90474523 0)
(226.289579 -0.810400553 0)
(226.332877 -0.720927351 0)
(226.366786 -0.636380906 0)
(226.392105 -0.556758861 0)
(226.409604 -0.482012092 0)
(226.420015 -0.412052799 0)
(226.424034 -0.346758041 0)
(226.422317 -0.285967191 0)
(226.415488 -0.229493508 0)
(226.404135 -0.177131509 0)
(226.388829 -0.128666361 0)
(226.37016 -0.0839090532 0)
(226.348759 -0.0427210855 0)
(226.32496 -0.00500433184 0)
(226.29906 0.0292539886 0)
(226.271272 0.059906931 0)
(226.241801 0.0871750925 0)
(226.210879 0.111329761 0)
(226.17869 0.132607242 0)
(226.145391 0.151256018 0)
(226.111143 0.167536549 0)
(226.076123 0.181693382 0)
(226.040509 0.193935922 0)
(226.004472 0.204445094 0)
(225.968159 0.21338598 0)
(225.931698 0.220909817 0)
(225.895203 0.227153228 0)
(225.858778 0.232239293 0)
(225.822521 0.236277493 0)
(225.786527 0.23936342 0)
(225.75088 0.241580472 0)
(225.715657 0.24300267 0)
(225.680926 0.24369704 0)
(225.646743 0.243725276 0)
(225.613155 0.243144987 0)
(225.580201 0.242010481 0)
(225.547914 0.240373033 0)
(225.516318 0.23828086 0)
(225.485435 0.235779032 0)
(225.455281 0.232909392 0)
(225.425872 0.229710526 0)
(225.397217 0.226217784 0)
(225.369327 0.22246336 0)
(225.342207 0.218476417 0)
(225.315866 0.214283261 0)
(225.290306 0.209907535 0)
(225.26553 0.205370423 0)
(225.241541 0.200690866 0)
(225.218339 0.195885765 0)
(225.195924 0.190970188 0)
(225.174296 0.185957566 0)
(225.153451 0.180859868 0)
(225.133388 0.175687755 0)
(225.114105 0.170450686 0)
(225.095596 0.165156994 0)
(225.077861 0.159813907 0)
(225.060892 0.154427544 0)
(225.044689 0.14900285 0)
(225.029248 0.143543632 0)
(225.01456 0.138051888 0)
(225.000641 0.132530332 0)
(224.987424 0.126969156 0)
(224.975122 0.121409555 0)
(224.962988 0.115635591 0)
(224.953731 0.110647154 0)
(224.93552 0.101712031 0)
(224.791724 0.077121591 0)
(224.770581 0.292373045 0)
(224.719684 0.547875091 0)
(224.628584 0.809762941 0)
(224.499102 1.04930854 0)
(224.337102 1.24494061 0)
(224.149682 1.3809014 0)
(223.945343 1.44828424 0)
(223.733853 1.44634588 0)
(223.525086 1.38082584 0)
(223.328028 1.25998728 0)
(223.150507 1.09239852 0)
(222.999161 0.888901698 0)
(222.878947 0.666874821 0)
(222.792004 0.452419554 0)
(222.736498 0.277506406 0)
(222.70593 0.172423063 0)
(222.689145 0.157184103 0)
(222.672233 0.235637604 0)
(222.64198 0.394289956 0)
(222.588213 0.606837688 0)
(222.50469 0.840831553 0)
(222.389695 1.0639199 0)
(222.245973 1.24881467 0)
(222.079848 1.37618115 0)
(221.90001 1.43533488 0)
(221.716309 1.42335728 0)
(221.538744 1.34352044 0)
(221.376713 1.20386752 0)
(221.238461 1.0165031 0)
(221.130564 0.797652005 0)
(221.057318 0.567959772 0)
(221.020037 0.352095754 0)
(221.0165 0.17676637 0)
(221.040865 0.0668128001 0)
(221.083702 0.0396949914 0)
(221.132342 0.101197639 0)
(221.173775 0.242897985 0)
(221.197645 0.442605244 0)
(221.19728 0.668458973 0)
(221.170581 0.886535379 0)
(221.120151 1.06884757 0)
(221.05218 1.19944438 0)
(220.974484 1.27671952 0)
(220.894352 1.31134937 0)
(220.816895 1.32092581 0)
(220.74432 1.32351688 0)
(220.676186 1.33253886 0)
(220.61033 1.35444707 0)
(220.543993 1.38936127 0)
(220.474703 1.43355835 0)
(220.400709 1.48230985 0)
(220.320986 1.53186834 0)
(220.235005 1.58016293 0)
(220.142459 1.62646852 0)
(220.043096 1.67064761 0)
(219.936674 1.71249627 0)
(219.823003 1.75144064 0)
(219.702013 1.78655362 0)
(219.573803 1.81672619 0)
(219.438662 1.84083781 0)
(219.297059 1.85785212 0)
(219.149633 1.86684078 0)
(218.997171 1.86697251 0)
(218.840602 1.8575 0)
(218.680978 1.83775827 0)
(218.519462 1.80717222 0)
(218.357315 1.76526624 0)
(218.195872 1.71167074 0)
(218.036527 1.64612422 0)
(217.880719 1.56847231 0)
(217.729918 1.47866476 0)
(217.585616 1.37675138 0)
(217.449325 1.26287714 0)
(217.32257 1.1372769 0)
(217.206887 1.00027076 0)
(217.103818 0.852261287 0)
(217.014898 0.693736176 0)
(216.941656 0.525276142 0)
(216.885604 0.347563743 0)
(216.848133 0.161384311 0)
(216.830939 -0.0325037956 0)
(216.837345 -0.233275109 0)
(216.866656 -0.439820848 0)
(216.919987 -0.650919929 0)
(216.998286 -0.865203275 0)
(217.102337 -1.08111663 0)
(217.232696 -1.29693489 0)
(217.389647 -1.5107792 0)
(217.573179 -1.72063743 0)
(217.782949 -1.92439469 0)
(218.018265 -2.11987256 0)
(218.278062 -2.30487775 0)
(218.560898 -2.47725969 0)
(218.864959 -2.63497372 0)
(219.188079 -2.77614559 0)
(219.527769 -2.89913292 0)
(219.881267 -3.00257964 0)
(220.245597 -3.08545982 0)
(220.617635 -3.14710875 0)
(220.99418 -3.18723995 0)
(221.372033 -3.20594781 0)
(221.748069 -3.20369604 0)
(222.119302 -3.18129316 0)
(222.48295 -3.13985665 0)
(222.836483 -3.08076831 0)
(223.177658 -3.00562329 0)
(223.50455 -2.91617596 0)
(223.815563 -2.81428512 0)
(224.109433 -2.7018612 0)
(224.385219 -2.58081729 0)
(224.64229 -2.45302569 0)
(224.880303 -2.32028073 0)
(225.099169 -2.18426846 0)
(225.299032 -2.04654333 0)
(225.480235 -1.90851162 0)
(225.643286 -1.77142124 0)
(225.788835 -1.6363579 0)
(225.917645 -1.50424777 0)
(226.030562 -1.37586585 0)
(226.128496 -1.25184636 0)
(226.212392 -1.13269226 0)
(226.283209 -1.01878542 0)
(226.341907 -0.910398095 0)
(226.389434 -0.807705107 0)
(226.426713 -0.710795285 0)
(226.454633 -0.619682925 0)
(226.474052 -0.534319552 0)
(226.485784 -0.454604989 0)
(226.490603 -0.380397333 0)
(226.489242 -0.311522302 0)
(226.482395 -0.247783556 0)
(226.470716 -0.188976481 0)
(226.454817 -0.134899801 0)
(226.435224 -0.0853442966 0)
(226.41234 -0.0400855283 0)
(226.386565 0.00133927523 0)
(226.358694 0.0389366142 0)
(226.329103 0.0728750779 0)
(226.297953 0.103312774 0)
(226.265419 0.13046179 0)
(226.231659 0.154537623 0)
(226.196838 0.175745479 0)
(226.16112 0.194301893 0)
(226.124658 0.210427095 0)
(226.087605 0.224335024 0)
(226.050116 0.23622484 0)
(226.012338 0.246276787 0)
(225.974413 0.254655774 0)
(225.936476 0.261514489 0)
(225.898658 0.266994094 0)
(225.861071 0.271225242 0)
(225.823809 0.27432897 0)
(225.786951 0.276416881 0)
(225.75056 0.277590932 0)
(225.714691 0.277943165 0)
(225.67939 0.277556023 0)
(225.644696 0.276503275 0)
(225.610645 0.274851205 0)
(225.577267 0.272659696 0)
(225.544589 0.269983095 0)
(225.512633 0.266870918 0)
(225.48142 0.263368421 0)
(225.450965 0.259517012 0)
(225.421283 0.255354529 0)
(225.392387 0.250915432 0)
(225.364284 0.246230969 0)
(225.336981 0.241329353 0)
(225.310483 0.236235978 0)
(225.284794 0.230973646 0)
(225.259912 0.225562809 0)
(225.235839 0.220021822 0)
(225.212571 0.214367177 0)
(225.190104 0.208613699 0)
(225.168435 0.202774723 0)
(225.147559 0.196862213 0)
(225.12747 0.190886834 0)
(225.108165 0.184858005 0)
(225.089637 0.178783917 0)
(225.071883 0.172671546 0)
(225.054896 0.166526649 0)
(225.038673 0.160353734 0)
(225.023212 0.15415615 0)
(225.008501 0.147935484 0)
(224.994555 0.141694339 0)
(224.98131 0.13542243 0)
(224.968971 0.12916565 0)
(224.956818 0.122688937 0)
(224.947528 0.117103627 0)
(224.929558 0.107161041 0)
(224.79179 0.0872366141 0)
(224.770823 0.335439144 0)
(224.720103 0.632763091 0)
(224.628915 0.938816381 0)
(224.498643 1.21975091 0)
(224.33478 1.45012961 0)
(224.144287 1.61111749 0)
(223.93582 1.69181583 0)
(223.719541 1.69093714 0)
(223.505825 1.61491643 0)
(223.304181 1.47330976 0)
(223.122952 1.27620985 0)
(222.969272 1.0365479 0)
(222.84846 0.774999575 0)
(222.762761 0.522323384 0)
(222.709862 0.31584141 0)
(222.682351 0.190645011 0)
(222.668712 0.16979331 0)
(222.655192 0.258217619 0)
(222.628169 0.441579754 0)
(222.576542 0.68988542 0)
(222.493439 0.96488811 0)
(222.37699 1.22811 0)
(222.230083 1.44701523 0)
(222.059381 1.59848787 0)
(221.874061 1.66968473 0)
(221.684575 1.65697716 0)
(221.501586 1.56405393 0)
(221.335146 1.40021601 0)
(221.19407 1.17953102 0)
(221.08536 0.920913148 0)
(221.013576 0.648495109 0)
(220.980116 0.391167308 0)
(220.982504 0.180224525 0)
(221.013601 0.0448449536 0)
(221.063185 0.00631515425 0)
(221.118993 0.0717627958 0)
(221.169516 0.231870791 0)
(221.202923 0.460200699 0)
(221.211244 0.71969693 0)
(221.192013 0.97081001 0)
(221.147821 1.18068654 0)
(221.085004 1.33042994 0)
(221.011612 1.41790368 0)
(220.9352 1.45541457 0)
(220.861122 1.46349743 0)
(220.791757 1.46338856 0)
(220.726736 1.47097972 0)
(220.663872 1.49404264 0)
(220.600293 1.53289289 0)
(220.533355 1.58326977 0)
(220.461118 1.63965692 0)
(220.382373 1.69763294 0)
(220.296435 1.7547184 0)
(220.202872 1.81001305 0)
(220.101336 1.86331775 0)
(219.991514 1.91436641 0)
(219.873168 1.96246308 0)
(219.746204 2.00649521 0)
(219.61072 2.04513154 0)
(219.467029 2.07702225 0)
(219.315648 2.1009131 0)
(219.157283 2.11567564 0)
(218.992811 2.12029604 0)
(218.823257 2.11386124 0)
(218.649784 2.09555834 0)
(218.473667 2.06468487 0)
(218.296287 2.02066094 0)
(218.119107 1.96303657 0)
(217.943659 1.89149218 0)
(217.771529 1.8058337 0)
(217.60434 1.70598444 0)
(217.443737 1.59197571 0)
(217.291379 1.4639379 0)
(217.148922 1.32209312 0)
(217.018014 1.16675 0)
(216.900299 0.998301946 0)
(216.797416 0.817228095 0)
(216.710991 0.624097033 0)
(216.642633 0.41957447 0)
(216.593969 0.204448716 0)
(216.566953 -0.0203028715 0)
(216.565563 -0.25358235 0)
(216.588539 -0.494074907 0)
(216.637217 -0.7403473 0)
(216.712802 -0.990774148 0)
(216.8163 -1.24351348 0)
(216.948476 -1.49651397 0)
(217.109813 -1.74752492 0)
(217.300457 -1.99411848 0)
(217.520173 -2.23373001 0)
(217.768304 -2.4637112 0)
(218.043749 -2.68139302 0)
(218.344948 -2.88415675 0)
(218.66989 -3.06951046 0)
(219.016133 -3.23516688 0)
(219.380843 -3.379119 0)
(219.760854 -3.49970894 0)
(220.15274 -3.5956854 0)
(220.552896 -3.66624561 0)
(220.957627 -3.71105896 0)
(221.363249 -3.73027093 0)
(221.766175 -3.72448753 0)
(222.162997 -3.69474214 0)
(222.550566 -3.64244746 0)
(222.926046 -3.56933637 0)
(223.286959 -3.47739527 0)
(223.631219 -3.36879414 0)
(223.957134 -3.2458169 0)
(224.263412 -3.11079502 0)
(224.549144 -2.96604713 0)
(224.813783 -2.81382633 0)
(225.057107 -2.65627626 0)
(225.279188 -2.49539629 0)
(225.480353 -2.33301598 0)
(225.661143 -2.17077806 0)
(225.822272 -2.01012943 0)
(225.964597 -1.85231921 0)
(226.08908 -1.69840316 0)
(226.196757 -1.54925315 0)
(226.288714 -1.40556981 0)
(226.366057 -1.26789624 0)
(226.429896 -1.13663251 0)
(226.481321 -1.01205081 0)
(226.521399 -0.894310855 0)
(226.551157 -0.783474928 0)
(226.571576 -0.679522356 0)
(226.583588 -0.58236365 0)
(226.58807 -0.491853581 0)
(226.58584 -0.407802546 0)
(226.577654 -0.329985953 0)
(226.564205 -0.258151148 0)
(226.546122 -0.192022651 0)
(226.523999 -0.131310863 0)
(226.498432 -0.0757407815 0)
(226.470306 -0.0251532778 0)
(226.440379 0.0205847358 0)
(226.408306 0.0620413587 0)
(226.374214 0.0995011305 0)