/*--------------------------------*- C++ -*----------------------------------*\
| =========                 |                                                 |
| \\      /  F ield         | OpenFOAM: The Open Source CFD Toolbox           |
|  \\    /   O peration     | Version:  v2012                                 |
|   \\  /    A nd           | Website:  www.openfoam.com                      |
|    \\/     M anipulation  |                                                 |
\*---------------------------------------------------------------------------*/
FoamFile
{
    version     2.0;
    format      ascii;
    class       volScalarField;
    location    "2.44";
    object      p;
}
// * * * * * * * * * * * * * * * * * * * * * * * * * * * * * * * * * * * * * //

dimensions      [0 2 -2 0 0 0 0];


internalField   nonuniform List<scalar> 
28416
(
0.00361421056
0.00361488904
0.00361628292
0.00361825696
0.00362060806
0.00362322744
0.0036261005
0.00362922662
0.00363258578
0.00363615448
0.0036399202
0.00364387917
0.00364803225
0.00365239018
0.00365698557
0.00366187874
0.00366713682
0.00367276613
0.00367867394
0.00368479083
0.0036910515
0.00369732753
0.0037034982
0.00370952645
0.00371541098
0.00372112628
0.00372662913
0.00373187894
0.00373683759
0.00374146454
0.00374571715
0.00374954976
0.00375290693
0.00375569189
0.00375790727
0.00375953463
0.00376051
0.00376078493
0.00376030284
0.00375900266
0.00375682442
0.00375371269
0.00374961928
0.00374450486
0.00373833928
0.00373110063
0.00372277358
0.00371334767
0.00370281617
0.00369117567
0.0036784263
0.00366457229
0.00364962249
0.00363359059
0.00361649525
0.00359835999
0.00357921298
0.00355908686
0.0035380185
0.00351604882
0.0034932225
0.00346958768
0.00344519559
0.00342010014
0.00339435748
0.00336802545
0.00334116306
0.00331382989
0.00328608545
0.00325798854
0.00322959657
0.0032009649
0.00317214616
0.00314318965
0.00311414067
0.00308503997
0.00305592371
0.00302682419
0.0029977708
0.00296879048
0.00293990521
0.00291110658
0.00288243731
0.00285384052
0.0028253289
0.00279691877
0.00276858778
0.00274031526
0.00271208436
0.00268387491
0.00265566421
0.00262742892
0.0025991454
0.00257079004
0.00254234006
0.00251377418
0.00248507321
0.0024562206
0.0024272029
0.00239801013
0.00236863605
0.00233907829
0.00230933835
0.00227942153
0.00224933674
0.00221909618
0.00218871498
0.00215821078
0.00212760327
0.00209691369
0.00206616434
0.00203537812
0.00200457811
0.00197378714
0.00194302743
0.00191232042
0.00188168622
0.00185114369
0.00182071393
0.00179042161
0.00176028354
0.00173031431
0.00170052726
0.00167093535
0.0016415528
0.00161238789
0.00158344393
0.00155472144
0.00152621895
0.00149793353
0.00146986147
0.00144199945
0.00141434428
0.00138689087
0.00135963009
0.0013325471
0.00130562059
0.00127882279
0.00125212155
0.00122549244
0.00119892833
0.00117249199
0.0011462529
0.00112021226
0.00109434194
0.00106861718
0.00104302534
0.00101756094
0.000992218612
0.000966991804
0.000941874507
0.000916861715
0.000891948991
0.000867132359
0.000842408281
0.000817773461
0.000793224654
0.000768758601
0.000744372029
0.000720061641
0.000695824118
0.000671656137
0.000647554408
0.000623515699
0.00059953685
0.000575614794
0.000551746557
0.000527929259
0.000504160108
0.000480436405
0.000456755519
0.000433114888
0.000409512015
0.000385944446
0.000362409769
0.000338905612
0.000315429625
0.000291979478
0.000268552864
0.000245147485
0.000221761041
0.000198391222
0.000175035716
0.000151692106
0.000128358086
0.00010503054
8.1708398e-05
5.83816049e-05
3.5065748e-05
1.16615647e-05
0.0036093749
0.00360966626
0.00361051019
0.00361201745
0.00361402938
0.00361639779
0.00361909592
0.00362213099
0.00362548442
0.00362912657
0.00363304035
0.00363722392
0.00364168441
0.00364643231
0.00365147296
0.00365679342
0.0036623622
0.00366815458
0.00367415253
0.00368031523
0.00368661358
0.00369301628
0.00369945083
0.00370583481
0.00371211244
0.00371824159
0.0037241778
0.00372987671
0.00373529603
0.00374039216
0.00374511765
0.00374942034
0.00375324314
0.00375652602
0.00375922368
0.00376129629
0.00376270882
0.00376339282
0.00376328679
0.0037623371
0.00376049293
0.00375770566
0.00375393011
0.00374912575
0.00374325729
0.00373629506
0.00372821504
0.003718999
0.00370863443
0.00369711454
0.00368443815
0.00367060956
0.00365563862
0.0036395406
0.00362233623
0.00360405164
0.00358471815
0.00356437211
0.0035430546
0.00352081107
0.003497691
0.00347374739
0.00344903637
0.0034236166
0.00339754874
0.00337089487
0.00334371788
0.00331608076
0.00328804607
0.00325967519
0.00323102776
0.00320216108
0.00317312952
0.00314398405
0.00311477188
0.00308553628
0.00305631625
0.003027146
0.00299805428
0.00296906443
0.00294020045
0.00291150468
0.00288280972
0.00285428721
0.00282590037
0.00279763162
0.00276946809
0.00274138894
0.00271337074
0.00268538816
0.00265741353
0.00262941786
0.00260137157
0.00257324519
0.00254501021
0.00251663987
0.00248810999
0.00245939963
0.00243049171
0.00240137352
0.00237203703
0.00234247905
0.00231270132
0.0022827103
0.00225251694
0.00222213625
0.00219158681
0.0021608902
0.00213007038
0.00209915304
0.00206816501
0.00203713367
0.00200608636
0.00197504995
0.00194405039
0.00191311238
0.00188225912
0.00185151237
0.00182089332
0.00179042269
0.00176011844
0.0017299962
0.0017000692
0.00167034751
0.00164083694
0.001611544
0.00158247381
0.00155362885
0.00152500933
0.00149661324
0.00146843511
0.00144046647
0.00141269976
0.00138512698
0.0013577393
0.00133052765
0.00130348341
0.0012766002
0.0012498831
0.00122334725
0.00119695775
0.0011706792
0.00114453192
0.00111853729
0.00109269753
0.00106700361
0.00104144524
0.00101601551
0.000990709266
0.000965521033
0.000940445183
0.000915476485
0.000890610039
0.000865841198
0.000841165618
0.000816579249
0.000792078256
0.000767658966
0.000743317856
0.000719051524
0.000694856654
0.000670729995
0.000646668363
0.000622668641
0.000598727776
0.000574842789
0.000551010773
0.000527228895
0.000503494393
0.000479804587
0.000456156859
0.000432548657
0.000408977494
0.000385440931
0.000361936579
0.000338462094
0.000315015166
0.000291593512
0.000268194877
0.000244817025
0.000221457726
0.000198114744
0.000174785862
0.000151468783
0.000128161394
0.000104860872
8.1566829e-05
5.82702052e-05
3.49903229e-05
1.16290224e-05
0.00360600212
0.00360648032
0.00360752801
0.00360916626
0.00361126496
0.00361370699
0.00361647316
0.00361957548
0.00362300402
0.00362673699
0.00363076038
0.00363506804
0.0036396524
0.00364450108
0.00364960646
0.00365498087
0.0036606464
0.00366659452
0.00367277635
0.00367913698
0.00368561094
0.00369213893
0.0036986782
0.00370519115
0.00371163956
0.00371798035
0.00372416366
0.00373013727
0.00373585007
0.00374125136
0.00374628978
0.00375091352
0.00375507039
0.00375870725
0.00376177307
0.00376421241
0.00376596661
0.00376698741
0.00376722029
0.00376660558
0.00376508537
0.00376260522
0.0037591152
0.00375457108
0.0037489351
0.00374217599
0.00373426871
0.00372519408
0.00371493856
0.00370349418
0.0036908587
0.00367703572
0.00366203487
0.00364587179
0.00362856812
0.00361015133
0.0035906545
0.00357011604
0.00354857936
0.00352609251
0.00350270774
0.00347848104
0.00345347165
0.00342774145
0.00340135438
0.00337437586
0.00334687209
0.00331890939
0.00329055355
0.00326186916
0.00323291889
0.00320376285
0.00317445802
0.00314505763
0.00311561079
0.00308616196
0.00305675068
0.00302741127
0.00299817276
0.00296906006
0.0029400889
0.00291124133
0.00288258701
0.00285406891
0.00282569494
0.00279746171
0.00276935156
0.0027413421
0.0027134085
0.00268552265
0.00265765359
0.00262976868
0.00260183457
0.00257381794
0.0025456865
0.00251740994
0.00248896086
0.00246031553
0.00243145465
0.00240236386
0.00237303414
0.00234346201
0.00231364951
0.00228360405
0.00225333803
0.00222286836
0.0021922159
0.0021614047
0.00213046135
0.00209941423
0.00206829278
0.00203712683
0.00200594605
0.00197477937
0.00194365458
0.00191259807
0.00188163462
0.00185078743
0.00182007828
0.00178952712
0.00175915114
0.00172896496
0.00169898075
0.00166920826
0.00163965508
0.00161032726
0.0015812286
0.00155236035
0.00152372171
0.00149531047
0.00146712479
0.00143916295
0.00141141947
0.00138388655
0.00135655481
0.001329415
0.00130246583
0.00127568537
0.00124901642
0.00122244728
0.00119602756
0.00116976154
0.00114364636
0.00111768406
0.00109187283
0.00106620569
0.00104067407
0.00101527061
0.000989989265
0.000964824275
0.000939770056
0.000914821547
0.00088997422
0.000865223927
0.000840566784
0.000815999083
0.000791517189
0.000767117481
0.000742796363
0.000718550286
0.000694375763
0.000670269379
0.00064622781
0.000622247827
0.000598326306
0.000574460226
0.00055064667
0.000526882813
0.000503165916
0.000479493329
0.000455862471
0.000432270826
0.000408715944
0.000385195418
0.00036170689
0.000338248043
0.000314816591
0.000291410275
0.000268026867
0.000244664161
0.000221319966
0.000197992102
0.000174678422
0.000151376729
0.000128085034
0.000104800668
8.15233181e-05
5.82437541e-05
3.49796477e-05
1.16297857e-05
0.00360097091
0.00360129807
0.00360214315
0.0036035949
0.00360555042
0.00360789953
0.00361062008
0.00361372011
0.00361718613
0.00362099092
0.00362511325
0.00362954147
0.00363427061
0.00363930416
0.0036446523
0.00365031159
0.00365625141
0.00366243848
0.0036688536
0.00367547473
0.0036822639
0.00368916204
0.00369610069
0.00370302213
0.00370988004
0.00371663065
0.0037232282
0.00372962508
0.00373577274
0.00374162119
0.00374711795
0.00375220735
0.00375683018
0.00376092482
0.00376443297
0.00376731479
0.0037695305
0.00377100362
0.00377165762
0.00377143325
0.00377027551
0.0037681312
0.00376495071
0.00376068892
0.00375530593
0.00374876753
0.00374104538
0.00373211715
0.00372196659
0.00371058373
0.0036979651
0.00368411389
0.00366904003
0.00365276015
0.00363529747
0.00361668161
0.00359694829
0.00357613906
0.0035543009
0.00353148582
0.00350775032
0.00348315487
0.00345776332
0.00343164228
0.00340486042
0.00337748776
0.00334959499
0.0033212527
0.00329253065
0.00326349711
0.00323421817
0.00320475713
0.00317517396
0.0031455247
0.00311586103
0.00308622974
0.00305667238
0.00302722489
0.00299791715
0.00296877172
0.00293980358
0.0029110338
0.00288243662
0.00285403554
0.00282581827
0.00279776905
0.0027698691
0.00274209372
0.00271441323
0.00268679415
0.00265919993
0.00263159193
0.00260393041
0.00257617564
0.00254828903
0.00252023427
0.00249197848
0.0024634932
0.00243475527
0.00240574753
0.00237645924
0.0023468864
0.00231703163
0.00228690402
0.00225651859
0.0022258957
0.00219506026
0.00216404088
0.00213286897
0.00210157784
0.00207020178
0.00203877534
0.00200733256
0.0019759064
0.00194452824
0.00191322753
0.00188203155
0.00185096528
0.0018200513
0.00178930971
0.00175875783
0.00172841027
0.00169827903
0.0016683735
0.0016387006
0.00160926501
0.00158006936
0.00155111423
0.00152239852
0.00149391969
0.00146567412
0.00143765669
0.00140986026
0.00138227611
0.00135489345
0.00132769714
0.00130066086
0.00127378122
0.00124709044
0.0012205693
0.00119420895
0.00116800395
0.00114194967
0.00111604359
0.00109028243
0.00106466129
0.0010391742
0.00101381516
0.000988578693
0.000963459649
0.000938452817
0.000913552938
0.000888754864
0.000864053683
0.000839444799
0.000814923952
0.000790487188
0.000766130781
0.000741851191
0.000717645015
0.000693508945
0.000669439747
0.000645434264
0.000621489409
0.000597602165
0.00057376959
0.000549988816
0.000526257046
0.00050257156
0.000478929714
0.000455328934
0.000431766707
0.000408240596
0.000384748213
0.000361287223
0.000337855349
0.000314450348
0.000291070018
0.000267712191
0.00024437473
0.00022105552
0.00019775246
0.000174463497
0.000151186534
0.00012791971
0.000104660495
8.14088819e-05
5.81559885e-05
3.4921624e-05
1.16054453e-05
0.00359549068
0.0035958514
0.00359673187
0.003598224
0.00360022611
0.00360262656
0.00360540582
0.00360857733
0.00361213362
0.00361605336
0.00362032145
0.00362493261
0.00362988482
0.00363517242
0.00364078117
0.00364668723
0.00365286997
0.00365930665
0.00366596897
0.0036728285
0.00367985469
0.00368701316
0.00369425934
0.00370154055
0.0037088029
0.00371599385
0.00372306112
0.003729952
0.00373661348
0.003742992
0.00374903329
0.00375468301
0.00375988839
0.00376459861
0.00376875722
0.00377227108
0.00377499108
0.00377694658
0.0037780942
0.00377836208
0.00377768426
0.00377599993
0.00377325265
0.00376939109
0.00376436991
0.00375814997
0.00375069854
0.00374198943
0.00373200336
0.00372072823
0.00370815933
0.00369429943
0.00367915872
0.00366275476
0.00364511236
0.00362626335
0.00360624632
0.00358510624
0.00356289405
0.00353966616
0.00351548386
0.00349041271
0.00346452188
0.00343788344
0.0034105716
0.003382662
0.00335423088
0.00332535439
0.00329610773
0.00326656445
0.00323679564
0.00320686921
0.00317684917
0.00314679506
0.00311676145
0.00308679749
0.00305694656
0.00302724591
0.00299772621
0.00296841154
0.00293931882
0.00291045243
0.00288183485
0.00285344614
0.00282527942
0.00279732033
0.0027695463
0.00274192836
0.0027144322
0.00268701887
0.00265964566
0.00263226713
0.00260483642
0.00257730656
0.0025496318
0.00252176908
0.00249367935
0.00246532885
0.00243669015
0.00240774303
0.00237847501
0.00234888162
0.00231896635
0.00228874032
0.00225822164
0.00222743459
0.00219640867
0.00216517751
0.00213377772
0.00210224781
0.00207062715
0.00203895498
0.00200726968
0.00197560796
0.00194400442
0.00191249114
0.00188109737
0.00184984945
0.00181877073
0.00178788147
0.00175719883
0.00172673692
0.00169650694
0.00166651733
0.001636774
0.00160728052
0.00157803838
0.00154904709
0.0015203044
0.00149180647
0.001463548
0.00143552226
0.00140772095
0.00138013495
0.00135275667
0.00132558354
0.00129861643
0.00127183875
0.00124522084
0.00121875936
0.00119245269
0.00116630019
0.00114029904
0.00111444563
0.00108873595
0.0010631652
0.00103772777
0.0010124177
0.000987229165
0.000962156533
0.00093719445
0.000912337917
0.000887582291
0.000862923158
0.000838356233
0.000813877357
0.000789482506
0.000765167787
0.000740929439
0.000716763848
0.000692667534
0.000668637145
0.000644669442
0.000620761296
0.000596909679
0.000573111668
0.000549364435
0.000525665238
0.000502011419
0.000478400405
0.000454829686
0.000431296821
0.000407799434
0.000384335198
0.000360901832
0.000337497106
0.000314118824
0.000290764825
0.00026743299
0.000244121228
0.000220827479
0.000197549708
0.000174285934
0.00015103415
0.000127792589
0.000104558828
8.13328736e-05
5.81057392e-05
3.48957379e-05
1.16007425e-05
0.00358934809
0.00358970654
0.00359058168
0.00359206662
0.00359407054
0.00359649255
0.00359931929
0.00360256681
0.00360622846
0.00361028251
0.00361471189
0.00361950718
0.0036246598
0.00363015711
0.00363598284
0.00364212507
0.00364857358
0.00365531332
0.00366231645
0.00366954287
0.0036769544
0.00368451242
0.00369217432
0.00369989252
0.00370761716
0.00371529734
0.00372288046
0.0037303121
0.00373753644
0.00374449609
0.00375113126
0.00375737817
0.00376316674
0.0037684215
0.00377307543
0.00377713415
0.00378046228
0.0037831257
0.00378490046
0.00378574002
0.00378558942
0.00378438925
0.00378208268
0.00377861629
0.00377394187
0.00376801748
0.0037608079
0.00375228479
0.00374242688
0.00373122026
0.0037186588
0.00370474447
0.00368948757
0.00367290663
0.00365502832
0.0036358871
0.00361552491
0.00359399069
0.00357133993
0.00354763409
0.00352293999
0.00349732912
0.00347087686
0.00344366171
0.00341576445
0.00338726727
0.00335825283
0.00332880346
0.00329900019
0.00326892197
0.00323864493
0.00320824167
0.00317778065
0.00314732559
0.00311693491
0.0030866612
0.00305655073
0.00302664305
0.00299697079
0.00296755934
0.00293842633
0.00290958453
0.00288102367
0.00285274887
0.00282474752
0.00279699878
0.00276947517
0.00274214255
0.00271496048
0.00268788301
0.00266085968
0.00263383671
0.00260675839
0.00257956864
0.00255221271
0.00252463892
0.00249680038
0.00246865653
0.00244017453
0.00241133029
0.00238210921
0.00235250642
0.00232252674
0.00229218414
0.00226150098
0.0022305069
0.00219923755
0.00216773321
0.00213603742
0.00210419554
0.00207225354
0.00204025684
0.00200824935
0.0019762727
0.00194436562
0.00191256356
0.00188089839
0.00184939829
0.00181808772
0.00178698745
0.00175611463
0.00172548301
0.0016951031
0.00166498244
0.00163512587
0.00160553579
0.00157621244
0.00154715414
0.00151835762
0.00148981826
0.00146153048
0.00143348808
0.00140568442
0.00137811135
0.00135075407
0.00132358798
0.00129658562
0.00126978003
0.00124317216
0.00121674252
0.00119047844
0.00116437415
0.00113842496
0.00111262555
0.00108697042
0.00106145397
0.00103607036
0.00101081368
0.000985678131
0.000960658199
0.000935748597
0.000910944186
0.000886239999
0.000861631292
0.000837113583
0.000812682653
0.000788334494
0.000764065261
0.000739871264
0.000715748963
0.00069169494
0.000667705889
0.000643778611
0.000619910014
0.000596097106
0.00057233699
0.000548626863
0.000524963999
0.000501345755
0.000477769568
0.000454232943
0.000430733454
0.000407268746
0.00038383652
0.000360434532
0.000337060597
0.000313712573
0.000290388359
0.0002670859
0.000243803175
0.000220538195
0.000197289001
0.000174053689
0.000150830329
0.000127617238
0.000104412066
8.12149852e-05
5.80171587e-05
3.48385074e-05
1.1577565e-05
0.00358253898
0.00358290059
0.00358378726
0.00358529592
0.00358733937
0.00358981863
0.00359272103
0.00359606356
0.003599841
0.00360403297
0.00360862342
0.00361360366
0.00361896632
0.00362470182
0.00363079794
0.00363724139
0.0036440153
0.00365109523
0.00365845365
0.00366606259
0.00367389323
0.00368190704
0.00369005892
0.00369830063
0.00370658077
0.00371484562
0.0037230399
0.00373110693
0.00373898873
0.00374662595
0.00375395795
0.00376092355
0.00376746229
0.00377351232
0.00377899473
0.00378376698
0.00378790512
0.00379117967
0.00379357462
0.0037950369
0.00379549265
0.00379487512
0.0037931163
0.00379015338
0.00378593069
0.0037803997
0.00377351925
0.00376525586
0.0037555842
0.00374448757
0.00373195832
0.00371799802
0.00370261751
0.00368583681
0.00366768488
0.00364819935
0.00362742611
0.00360541884
0.00358223849
0.00355795258
0.00353263451
0.00350636276
0.00347922
0.00345129224
0.00342266787
0.00339343673
0.00336368911
0.0033335149
0.0033030026
0.00327223841
0.00324130537
0.00321028246
0.00317924378
0.00314825793
0.00311738739
0.00308668809
0.00305620904
0.00302599205
0.0029960713
0.00296647312
0.0029372166
0.00290831192
0.00287975506
0.00285154233
0.00282366139
0.00279609011
0.0027687956
0.00274173776
0.00271486932
0.00268813621
0.0026614787
0.00263483286
0.00260813212
0.00258130926
0.00255429842
0.00252703731
0.00249946932
0.00247154558
0.00244322659
0.00241448365
0.00238529968
0.00235566954
0.00232559992
0.00229510861
0.00226422343
0.00223298079
0.00220142404
0.00216960168
0.00213756562
0.00210536948
0.00207306697
0.00204071064
0.00200835068
0.0019760341
0.00194380406
0.00191169944
0.00187975463
0.00184799943
0.00181645916
0.00178515474
0.00175410294
0.00172331667
0.00169280528
0.0016625749
0.00163262879
0.00160296769
0.00157359008
0.00154449251
0.0015156698
0.00148711521
0.0014588205
0.00143077576
0.00140296966
0.00137539215
0.00134804162
0.00132092848
0.00129403503
0.001267316
0.00124077463
0.00121441105
0.00118821606
0.00116218199
0.00113630317
0.00111057385
0.00108498813
0.00105954008
0.00103422372
0.00100903313
0.000983962521
0.000959006322
0.000934159206
0.000909416051
0.000884771948
0.000860222207
0.000835762329
0.000811388006
0.000787095139
0.000762879811
0.000738738284
0.000714666983
0.000690662482
0.000666721485
0.000642840825
0.000619017448
0.000595248408
0.000571530865
0.000547862072
0.000524239374
0.000500660196
0.000477122055
0.000453622532
0.000430159277
0.000406730009
0.000383332495
0.000359964554
0.000336624056
0.00031330891
0.000290017067
0.000266746523
0.00024349531
0.000220261497
0.000197043187
0.000173838543
0.000150645704
0.000127463059
0.000104288326
8.11216646e-05
5.79541583e-05
3.48044222e-05
1.15697616e-05
0.00357505807
0.00357542823
0.00357633595
0.00357788009
0.00357997468
0.00358252284
0.00358551468
0.00358896981
0.00359288488
0.00359724061
0.00360202145
0.00360721882
0.00361282507
0.00361882967
0.0036252197
0.00363198017
0.00363909331
0.00364653974
0.00365429585
0.00366233491
0.00367062359
0.00367912465
0.0036877973
0.00369659579
0.00370546964
0.00371436474
0.00372322441
0.00373198983
0.00374060021
0.00374899255
0.00375710114
0.0037648566
0.00377218556
0.00377901304
0.00378527344
0.00379090958
0.00379583431
0.00379990208
0.00380306702
0.00380526679
0.00380643215
0.00380647842
0.00380532978
0.00380291802
0.0037991816
0.00379406676
0.0037875279
0.00377952778
0.00377003791
0.00375903907
0.00374652178
0.0037324868
0.0037169452
0.00369991842
0.00368143794
0.00366154493
0.0036402898
0.0036177316
0.00359393746
0.00356898179
0.00354294551
0.00351591517
0.00348798197
0.00345924076
0.003429789
0.00339972565
0.00336915005
0.00333816084
0.00330685481
0.00327532591
0.00324366429
0.00321195549
0.00318027964
0.00314871087
0.0031173167
0.00308615749
0.00305528598
0.00302474694
0.00299457691
0.00296480406
0.00293544819
0.00290652135
0.00287801556
0.00284992688
0.00282223906
0.00279492572
0.00276794904
0.00274126218
0.00271480982
0.00268852843
0.00266234738
0.00263619058
0.00260997833
0.0025836297
0.00255706505
0.00253020879
0.00250299215
0.00247535574
0.00244725178
0.00241864585
0.00238951793
0.00235986288
0.00232969006
0.00229902245
0.00226789511
0.00223635329
0.00220445025
0.00217224497
0.00213979991
0.00210717886
0.00207444509
0.00204165971
0.00200888043
0.00197616051
0.0019435482
0.00191108623
0.00187881175
0.00184675627
0.0018149459
0.00178340163
0.00175213965
0.00172117178
0.00169050596
0.00166014661
0.00163009511
0.00160035021
0.00157090846
0.00154176454
0.00151291167
0.001484342
0.00145604709
0.0014280185
0.00140024765
0.001372722
0.00134541807
0.00131831754
0.00129143228
0.00126475129
0.00123826117
0.00121195358
0.0011858198
0.00115985126
0.00113404046
0.00110838039
0.00108286434
0.00105748583
0.00103223853
0.00100711631
0.000982113196
0.000957223423
0.000932441479
0.000907762122
0.000883180383
0.000858691566
0.000834291196
0.000809975004
0.000785738923
0.00076157906
0.000737491692
0.000713473257
0.000689520346
0.000665629681
0.000641798119
0.000618022637
0.000594300321
0.000570628369
0.000547004075
0.000523424817
0.00049988806
0.000476391351
0.000452932305
0.000429508607
0.000406118017
0.000382758347
0.000359427471
0.000336123321
0.000312843873
0.000289587151
0.000266351224
0.000243134198
0.000219934215
0.000196749447
0.000173578127
0.000150418459
0.000127268891
0.000104127191
8.09936245e-05
5.78593767e-05
3.47442738e-05
1.15464259e-05
0.0035668915
0.00356727303
0.00356820775
0.00356979621
0.00357195295
0.00357458218
0.00357767563
0.00358125454
0.00358531679
0.00358984408
0.00359482178
0.00360024235
0.00360609932
0.00361238357
0.00361908363
0.00362618635
0.00363367611
0.00364153339
0.00364973516
0.00365825476
0.00366706247
0.0036761237
0.00368539772
0.00369483777
0.00370439222
0.00371400575
0.00372362003
0.003733174
0.00374260391
0.0037518433
0.00376082297
0.00376947132
0.00377771416
0.0037854725
0.00379266426
0.00379921274
0.00380505709
0.00381018058
0.00381408778
0.00381710811
0.00381907294
0.00381987706
0.00381943382
0.00381766439
0.0038144988
0.00380987584
0.00380374326
0.00379605809
0.00378678722
0.00377590803
0.00376340898
0.00374929011
0.00373356312
0.00371625129
0.00369738921
0.00367702226
0.00365520614
0.00363200624
0.00360749688
0.00358176054
0.00355488691
0.00352697187
0.00349811643
0.00346842553
0.00343800688
0.00340696975
0.00337542367
0.00334347732
0.00331123727
0.00327880689
0.00324628527
0.0032137662
0.00318133726
0.00314907908
0.00311706467
0.00308535897
0.00305401845
0.00302309091
0.00299261516
0.00296262067
0.00293312727
0.00290414536
0.00287567461
0.00284770835
0.00282022289
0.00279318801
0.00276656197
0.00274029109
0.00271431113
0.00268854767
0.00266291721
0.00263732906
0.00261168755
0.00258589485
0.0025598542
0.00253347343
0.00250666847
0.00247936676
0.00245151018
0.00242305724
0.00239398455
0.00236428726
0.00233397858
0.00230308846
0.00227166149
0.00223975438
0.00220743306
0.0021747697
0.00214183985
0.00210871981
0.00207548428
0.00204220451
0.00200894684
0.00197577161
0.00194273252
0.00190987636
0.00187724287
0.001844865
0.00181276924
0.00178097607
0.0017495005
0.00171835266
0.0016875384
0.00165705981
0.00162691584
0.00159710275
0.00156761461
0.00153844368
0.00150958076
0.00148101535
0.00145273581
0.00142472926
0.00139698292
0.00136948939
0.00134224644
0.00131522928
0.00128842329
0.00126182122
0.00123541278
0.00120918815
0.00118313835
0.00115725477
0.00113152939
0.00110595466
0.00108052335
0.00105522855
0.00103006361
0.00100502217
0.000980098168
0.000955285819
0.000930579651
0.000905974427
0.000881465129
0.00085704697
0.000832715395
0.000808466092
0.000784294981
0.00076019818
0.000736171997
0.000712212916
0.000688317577
0.000664482762
0.000640705385
0.000616982483
0.000593311207
0.00056968882
0.000546112685
0.000522580254
0.000499089068
0.000475636757
0.000452221018
0.00042883962
0.000405490398
0.00038217124
0.000358880085
0.000335614925
0.000312373794
0.000289154768
0.00026595597
0.000242775563
0.000219611746
0.000196462755
0.000173326884
0.000150202401
0.000127087817
0.000103980963
8.08821123e-05
5.77824341e-05
3.47008592e-05
1.15346466e-05
0.00355802036
0.00355841521
0.00355938145
0.00356102103
0.00356324836
0.00356596819
0.00356917386
0.00357288854
0.00357711174
0.00358182642
0.00358701915
0.0035926836
0.00359881444
0.00360540361
0.00361244038
0.00361991187
0.00362780354
0.00363609791
0.00364477424
0.00365380886
0.00366317389
0.00367283563
0.00368275424
0.00369288411
0.0037031742
0.00371356853
0.00372400704
0.00373442621
0.00374475946
0.00375493703
0.00376488553
0.0037745272
0.00378378078
0.00379256273
0.00380078186
0.00380833679
0.0038151207
0.00382096702
0.00382616271
0.00383022487
0.00383313395
0.0038348136
0.00383517531
0.00383413461
0.0038316139
0.00382754426
0.00382186647
0.00381453163
0.00380550174
0.00379475046
0.00378226389
0.00376804106
0.00375209424
0.00373444878
0.00371514272
0.00369422631
0.00367176132
0.00364782039
0.00362248613
0.00359585026
0.00356801252
0.00353907957
0.00350916375
0.00347838179
0.00344685349
0.00341470028
0.00338204382
0.00334900457
0.00331570045
0.00328224543
0.00324874837
0.00321531197
0.00318203177
0.00314899544
0.00311628215
0.00308396214
0.00305209633
0.00302073607
0.00298992293
0.00295968858
0.00293005449
0.00290103112
0.00287261864
0.00284480934
0.00281757587
0.00279088426
0.00276468795
0.00273892556
0.0027135228
0.00268839281
0.00266343709
0.00263854749
0.00261360886
0.00258850246
0.00256311008
0.00253731852
0.00251102427
0.00248413801
0.00245658844
0.00242832533
0.00239932131
0.0023695724
0.00233909729
0.00230793539
0.00227614398
0.00224379476
0.00221096996
0.00217775849
0.00214425227
0.0021105429
0.00207671889
0.00204286346
0.00200905289
0.00197535542
0.0019418307
0.00190852958
0.00187549427
0.00184275875
0.00181034935
0.00177828545
0.00174658024
0.00171524148
0.00168427228
0.0016536718
0.00162343592
0.00159355784
0.00156402865
0.00153483777
0.00150597344
0.00147742321
0.00144917444
0.00142121445
0.00139352857
0.00136609392
0.00133890474
0.00131195315
0.00128522249
0.00125870008
0.00123237509
0.00120623701
0.00118027577
0.00115448197
0.00112884687
0.00110336229
0.00107802048
0.00105281416
0.00102773644
0.00100278074
0.000977940808
0.000953210699
0.000928584763
0.000904057661
0.00087962437
0.000855280161
0.000831020555
0.000806841293
0.00078273833
0.000758707816
0.000734746087
0.000710849661
0.000687015218
0.000663239584
0.000639519729
0.00061585275
0.000592235863
0.000568666394
0.000545141773
0.000521659517
0.000498217227
0.00047481259
0.000451443361
0.000428107363
0.000404802491
0.000381526695
0.000358277983
0.000335054423
0.000311854125
0.000288675245
0.000265515985
0.000242374586
0.000219249321
0.000196138494
0.000173040465
0.000149953564
0.000126876356
0.000103806717
8.07449936e-05
5.76824284e-05
3.46386746e-05
1.15117937e-05
0.00354842255
0.00354883217
0.00354983329
0.00355152913
0.00355383356
0.00355665153
0.00355997773
0.00356383707
0.00356823058
0.00357314249
0.0035785607
0.00358448038
0.00359089788
0.00359780696
0.0036051987
0.00361306217
0.00362138438
0.0036301506
0.00363934281
0.00364893862
0.00365891126
0.00366922927
0.00367985484
0.00369074307
0.00370184259
0.00371309662
0.00372444387
0.00373581889
0.00374715219
0.00375837001
0.00376939409
0.00378014168
0.00379052475
0.00380044984
0.00380982142
0.00381854156
0.00382650471
0.00383360858
0.00383981267
0.0038449444
0.00384889395
0.00385155707
0.00385283233
0.00385262301
0.0038508403
0.00384740528
0.00384224992
0.0038353178
0.00382656482
0.00381596016
0.00380348711
0.00378914375
0.00377294309
0.00375491302
0.00373509574
0.00371354717
0.00369033617
0.00366554376
0.00363926214
0.0036115937
0.00358264981
0.00355254957
0.00352141838
0.00348938646
0.00345658734
0.0034231563
0.00338922872
0.00335493845
0.0033204163
0.00328578845
0.00325117516
0.00321668948
0.00318243623
0.00314851112
0.00311500013
0.00308197912
0.00304951353
0.00301765829
0.00298645783
0.00295594589
0.00292614538
0.00289706897
0.00286871951
0.00284108433
0.00281413397
0.00278783351
0.00276213214
0.00273696048
0.00271223341
0.00268785013
0.0026636948
0.00263963848
0.00261554234
0.00259126177
0.00256665155
0.00254157177
0.00251589408
0.00248950762
0.00246232433
0.00243428294
0.00240535141
0.00237552749
0.00234483762
0.00231333409
0.00228109109
0.00224819993
0.00221476389
0.00218089314
0.00214669999
0.00211229481
0.00207778268
0.00204326078
0.00200881671
0.00197452737
0.00194045855
0.00190666499
0.00187319084
0.00184007035
0.00180732883
0.00177498357
0.00174304493
0.00171151732
0.00168040017
0.0016496888
0.00161937528
0.00158944907
0.00155989769
0.00153070722
0.00150186268
0.00147334829
0.00144514771
0.0014172448
0.00138962967
0.00136228473
0.00133518812
0.00130832976
0.00128169695
0.00125527581
0.00122905403
0.00120302041
0.00117716433
0.00115147577
0.00112594542
0.00110056456
0.00107532507
0.0010502193
0.00102524004
0.00100038054
0.000975634419
0.000950995683
0.000926458702
0.000902018158
0.000877669024
0.000853406549
0.000829226238
0.00080512385
0.000781095387
0.000757137062
0.000733245285
0.000709416651
0.000685647918
0.000661935994
0.000638277925
0.000614670887
0.000591112173
0.000567599189
0.000544129444