/*--------------------------------*- C++ -*----------------------------------*\
| =========                 |                                                 |
| \\      /  F ield         | OpenFOAM: The Open Source CFD Toolbox           |
|  \\    /   O peration     | Version:  v2012                                 |
|   \\  /    A nd           | Website:  www.openfoam.com                      |
|    \\/     M anipulation  |                                                 |
\*---------------------------------------------------------------------------*/
FoamFile
{
    version     2.0;
    format      ascii;
    class       surfaceScalarField;
    location    "2.44";
    object      phi;
}
// * * * * * * * * * * * * * * * * * * * * * * * * * * * * * * * * * * * * * //

dimensions      [0 3 -1 0 0 0 0];
oriented        oriented;


internalField   nonuniform List<scalar> 
56481
(
6.66621723e-07
1.08497383e-10
6.66484996e-07
3.61276194e-10
6.66247731e-07
6.49127941e-10
6.65911798e-07
9.43912129e-10
6.65488364e-07
1.21322966e-09
6.64995177e-07
1.43051797e-09
6.64454502e-07
1.57671481e-09
6.63890801e-07
1.641473e-09
6.63328124e-07
1.6246864e-09
6.62788251e-07
1.53452481e-09
6.62290235e-07
1.38243781e-09
6.61850619e-07
1.18020771e-09
6.61482815e-07
9.42188694e-10
6.6119478e-07
6.90191894e-10
6.60985555e-07
4.55574328e-10
6.60842278e-07
2.75179927e-10
6.60739331e-07
1.82766051e-10
6.60641528e-07
1.99923161e-10
6.60513917e-07
3.27211328e-10
6.60330405e-07
5.44967789e-10
6.60076686e-07
8.22625382e-10
6.59750599e-07
1.12342208e-09
6.59360397e-07
1.4090034e-09
6.58921566e-07
1.6466975e-09
6.58453612e-07
1.81363958e-09
6.57977551e-07
1.89685746e-09
6.57514015e-07
1.89235323e-09
6.57081963e-07
1.80413778e-09
6.56697879e-07
1.64314899e-09
6.56375033e-07
1.42643107e-09
6.56122473e-07
1.17679503e-09
6.55943835e-07
9.2244973e-10
6.55837257e-07
6.95623656e-10
6.55790319e-07
5.28755693e-10
6.5578256e-07
4.5061066e-10
6.55791597e-07
4.80162968e-10
6.55793113e-07
6.2268932e-10
6.55765866e-07
8.64247904e-10
6.55695416e-07
1.17478066e-09
6.55576234e-07
1.51450243e-09
6.55411861e-07
1.84261588e-09
6.55212884e-07
2.12641601e-09
6.54993375e-07
2.34780521e-09
6.54766978e-07
2.5052433e-09
6.54543793e-07
2.61083628e-09
6.54328874e-07
2.68402891e-09
6.54122444e-07
2.74446316e-09
6.53921367e-07
2.80653426e-09
6.53721083e-07
2.87710651e-09
6.53517236e-07
2.95634118e-09
6.53306583e-07
3.04040409e-09
6.53087155e-07
3.12443082e-09
6.52857927e-07
3.20454313e-09
6.52618351e-07
3.27852009e-09
6.52368015e-07
3.34543941e-09
6.52106511e-07
3.40491619e-09
6.51833481e-07
3.45646882e-09
6.51548727e-07
3.49924488e-09
6.51252322e-07
3.53206042e-09
6.50944665e-07
3.5535828e-09
6.50626493e-07
3.56250346e-09
6.5029887e-07
3.55763313e-09
6.49963175e-07
3.53792459e-09
6.49621079e-07
3.50246395e-09
6.49274538e-07
3.45045805e-09
6.48925768e-07
3.38123644e-09
6.48577231e-07
3.29426351e-09
6.48231599e-07
3.18914608e-09
6.4789173e-07
3.06564988e-09
6.47560642e-07
2.92370722e-09
6.47241491e-07
2.76341697e-09
6.46937561e-07
2.58505067e-09
6.46652259e-07
2.38904782e-09
6.46389116e-07
2.17600151e-09
6.46151797e-07
1.94663322e-09
6.45944138e-07
1.70173204e-09
6.4576997e-07
1.44228673e-09
6.45632908e-07
1.169396e-09
6.45536179e-07
8.84189376e-10
6.4548234e-07
5.88044222e-10
6.45473067e-07
2.82726976e-10
6.45508426e-07
-2.93502627e-11
6.45603002e-07
-3.48222727e-10
6.45754932e-07
-6.70373838e-10
6.45965049e-07
-9.96178209e-10
6.46233926e-07
-1.32355853e-09
6.46561971e-07
-1.65052279e-09
6.46949134e-07
-1.97488134e-09
6.47394782e-07
-2.29419448e-09
6.47897667e-07
-2.60590447e-09
6.48455904e-07
-2.90737379e-09
6.49066971e-07
-3.19590607e-09
6.49727739e-07
-3.46879122e-09
6.50434523e-07
-3.72337857e-09
6.51183137e-07
-3.95715406e-09
6.51968948e-07
-4.16781445e-09
6.52786937e-07
-4.35334923e-09
6.53631755e-07
-4.51210501e-09
6.54497792e-07
-4.6428255e-09
6.55379258e-07
-4.74468756e-09
6.56270273e-07
-4.81731472e-09
6.57164966e-07
-4.86076872e-09
6.5805757e-07
-4.8755444e-09
6.5894252e-07
-4.86254052e-09
6.5981454e-07
-4.82303055e-09
6.6066871e-07
-4.75861043e-09
6.61500536e-07
-4.67116107e-09
6.62305983e-07
-4.56278081e-09
6.63081516e-07
-4.4357368e-09
6.63824112e-07
-4.29240223e-09
6.64531264e-07
-4.13520484e-09
6.65200975e-07
-3.96656741e-09
6.65831733e-07
-3.78886737e-09
6.66422476e-07
-3.60439453e-09
6.66972539e-07
-3.41530597e-09
6.67481554e-07
-3.22359273e-09
6.67949412e-07
-3.03103025e-09
6.68376504e-07
-2.83908099e-09
6.68763914e-07
-2.64890768e-09
6.6911314e-07
-2.46158667e-09
6.69425741e-07
-2.2781694e-09
6.69703316e-07
-2.0995727e-09
6.69947461e-07
-1.9265245e-09
6.70159729e-07
-1.75955707e-09
6.70341948e-07
-1.5993196e-09
6.70496041e-07
-1.44610632e-09
6.70623938e-07
-1.3000558e-09
6.7072756e-07
-1.16123848e-09
6.70808788e-07
-1.02965887e-09
6.70869451e-07
-9.05258751e-10
6.70911292e-07
-7.87906838e-10
6.70935958e-07
-6.77390239e-10
6.70945042e-07
-5.73461375e-10
6.7094013e-07
-4.75847706e-10
6.70922862e-07
-3.84275307e-10
6.70894998e-07
-2.98516464e-10
6.70858481e-07
-2.18470823e-10
6.70815513e-07
-1.44328305e-10
6.70768262e-07
-7.64542564e-11
6.70718549e-07
-1.59448468e-11
6.70663615e-07
4.06025576e-11
6.70600438e-07
8.94914257e-11
6.70529615e-07
1.31204841e-10
6.70452617e-07
1.67479475e-10
6.70370506e-07
1.99388515e-10
6.70284184e-07
2.27515021e-10
6.70194443e-07
2.52235653e-10
6.70101992e-07
2.73912225e-10
6.70007473e-07
2.92884877e-10
6.69911475e-07
3.09434297e-10
6.69814535e-07
3.23792763e-10
6.69717129e-07
3.36158353e-10
6.6961967e-07
3.46695725e-10
6.69522506e-07
3.55541243e-10
6.69425925e-07
3.6281282e-10
6.69330162e-07
3.68617023e-10
6.69235407e-07
3.7305393e-10
6.69141818e-07
3.76220045e-10
6.6904953e-07
3.78209608e-10
6.68958659e-07
3.79115875e-10
6.6886931e-07
3.79030282e-10
6.68781578e-07
3.78041832e-10
6.68695551e-07
3.76235207e-10
6.68611312e-07
3.73690628e-10
6.68528935e-07
3.70481901e-10
6.68448489e-07
3.66676452e-10
6.68370033e-07
3.62334642e-10
6.68293621e-07
3.57510224e-10
6.68219294e-07
3.52250135e-10
6.68147089e-07
3.46595757e-10
6.68077032e-07
3.40583775e-10
6.68009142e-07
3.34246575e-10
6.67943431e-07
3.2761369e-10
6.67879907e-07
3.20712549e-10
6.67818572e-07
3.13568551e-10
6.67759426e-07
3.06205962e-10
6.67702468e-07
2.98648054e-10
6.67647696e-07
2.90916614e-10
6.67595109e-07
2.83032314e-10
6.67544706e-07
2.75014138e-10
6.67496488e-07
2.6687936e-10
6.6745046e-07
2.58642652e-10
6.67406627e-07
2.50316269e-10
6.67365e-07
2.41908333e-10
6.67325596e-07
2.33425857e-10
6.67288443e-07
2.24850668e-10
6.67253575e-07
2.16237949e-10
6.67221121e-07
2.07208531e-10
6.67190998e-07
1.99252035e-10
1.84674043e-10
6.66645558e-07
1.29539626e-10
6.66535659e-07
4.71174542e-10
6.6631825e-07
8.66537393e-10
6.65991413e-07
1.27074921e-09
6.65564599e-07
1.6400432e-09
6.65056005e-07
1.93911284e-09
6.64490212e-07
2.14250758e-09
6.63895134e-07
2.23655056e-09
6.63298746e-07
2.22107432e-09
6.62726766e-07
2.10650545e-09
6.62201918e-07
1.90728511e-09
6.6174388e-07
1.63824618e-09
6.61368165e-07
1.31790353e-09
6.61083193e-07
9.75164337e-10
6.60886745e-07
6.5202157e-10
6.60763887e-07
3.98038217e-10
6.60688385e-07
2.58267937e-10
6.60627788e-07
2.60520634e-10
6.60546193e-07
4.0880616e-10
6.60409592e-07
6.8156829e-10
6.60194572e-07
1.03764579e-09
6.59891615e-07
1.42637861e-09
6.59504327e-07
1.79629191e-09
6.59047754e-07
2.10327019e-09
6.58545122e-07
2.31627191e-09
6.58023533e-07
2.41844639e-09
6.57510468e-07
2.40541818e-09
6.57031596e-07
2.28301017e-09
6.56609435e-07
2.06530944e-09
6.56262321e-07
1.7735458e-09
6.56003198e-07
1.43591709e-09
6.5583804e-07
1.08760815e-09
6.55764072e-07
7.69592119e-10
6.55768032e-07
5.24795381e-10
6.55826853e-07
3.91789788e-10
6.5590998e-07
3.97035574e-10
6.55984807e-07
5.47862862e-10
6.56021073e-07
8.2798116e-10
6.55996668e-07
1.19918563e-09
6.55901849e-07
1.6093222e-09
6.55740237e-07
2.00422769e-09
6.55526485e-07
2.34016752e-09
6.55281366e-07
2.59292459e-09
6.55025865e-07
2.76074426e-09
6.54776135e-07
2.86056631e-09
6.5454072e-07
2.91944411e-09
6.54320516e-07
2.96466694e-09
6.54110899e-07
3.01615104e-09
6.53904786e-07
3.08322022e-09
6.53695351e-07
3.16577543e-09
6.53477612e-07
3.25814367e-09
6.53248737e-07
3.35330602e-09
6.53007507e-07
3.44577231e-09
6.52753505e-07
3.53252209e-09
6.52486485e-07
3.61245966e-09
6.52206114e-07
3.68528728e-09
6.51912016e-07
3.7505666e-09
6.51603953e-07
3.80730782e-09
6.51281994e-07
3.85402015e-09
6.50946602e-07
3.8889745e-09
6.50598652e-07
3.91045313e-09
6.502394e-07
3.91688559e-09
6.49870445e-07
3.90687906e-09
6.49493707e-07
3.87920214e-09
6.49111401e-07
3.83276463e-09
6.48726019e-07
3.76661824e-09
6.4834031e-07
3.67997212e-09
6.47957253e-07
3.57220365e-09
6.47580025e-07
3.44287751e-09
6.47211979e-07
3.2917527e-09
6.46856616e-07
3.11878015e-09
6.4651756e-07
2.92410712e-09
6.46198536e-07
2.70807205e-09
6.45903346e-07
2.47119109e-09
6.45635828e-07
2.21415157e-09
6.45399756e-07
1.93780357e-09
6.45198889e-07
1.64315438e-09
6.45036931e-07
1.33135309e-09
6.44917489e-07
1.00363206e-09
6.44844373e-07
6.61159724e-10
6.44822252e-07
3.04848155e-10
6.4485518e-07
-6.22776529e-11
6.44943754e-07
-4.36797493e-10
6.4509187e-07
-8.1848987e-10
6.45301265e-07
-1.2055731e-09
6.45573453e-07
-1.5957459e-09
6.45909222e-07
-1.98629186e-09
6.46308735e-07
-2.37439501e-09
6.46771553e-07
-2.7570125e-09
6.47296552e-07
-3.13090352e-09
6.47881886e-07
-3.49270785e-09
6.48524986e-07
-3.83900558e-09
6.49222574e-07
-4.16637891e-09
6.49970698e-07
-4.47150246e-09
6.50764779e-07
-4.75123506e-09
6.51599668e-07
-5.00270415e-09
6.52469719e-07
-5.22339982e-09
6.53368866e-07
-5.41125198e-09
6.54290723e-07
-5.56468263e-09
6.55228691e-07
-5.68265605e-09
6.56176079e-07
-5.76470204e-09
6.5712622e-07
-5.81091034e-09
6.58072602e-07
-5.82192552e-09
6.5900897e-07
-5.79890936e-09
6.5992944e-07
-5.74350043e-09
6.60828574e-07
-5.65774457e-09
6.61701455e-07
-5.5440421e-09
6.62543734e-07
-5.40505948e-09
6.63351661e-07
-5.24366395e-09
6.64122101e-07
-5.06284219e-09
6.6485253e-07
-4.86563332e-09
6.65541016e-07
-4.65505332e-09
6.66186191e-07
-4.43404316e-09
6.66787213e-07
-4.20541582e-09
6.67343711e-07
-3.97180421e-09
6.67855748e-07
-3.73563018e-09
6.68323785e-07
-3.49906703e-09
6.68748687e-07
-3.26398251e-09
6.69131728e-07
-3.03194935e-09
6.69474488e-07
-2.80434634e-09
6.69778718e-07
-2.58239913e-09
6.70046295e-07
-2.36715022e-09
6.70279215e-07
-2.15944389e-09
6.70479604e-07
-1.95994684e-09
6.70649466e-07
-1.76918138e-09
6.70790826e-07
-1.58746654e-09
6.70905736e-07
-1.41496569e-09
6.70996229e-07
-1.25173097e-09
6.710643e-07
-1.09773034e-09
6.7111192e-07
-9.52878696e-10
6.71141051e-07
-8.17037649e-10
6.7115352e-07
-6.89859428e-10
6.71151077e-07
-5.71018087e-10
6.71135417e-07
-4.60188008e-10
6.71108165e-07
-3.57023379e-10
6.71070834e-07
-2.61185267e-10
6.71024725e-07
-1.72362049e-10
6.70970466e-07
-9.00691756e-11
6.70907263e-07
-1.3250718e-11
6.7083814e-07
5.31776023e-11
6.7076555e-07
1.13193028e-10
6.70688601e-07
1.66439815e-10
6.70606783e-07
2.13023226e-10
6.7052053e-07
2.53732104e-10
6.70430509e-07
2.89409752e-10
6.70337345e-07
3.20679015e-10
6.70241615e-07
3.47965418e-10
6.70143878e-07
3.71649559e-10
6.70044657e-07
3.92105613e-10
6.69944428e-07
4.09663387e-10
6.6984362e-07
4.24601381e-10
6.69742619e-07
4.37159044e-10
6.69641773e-07
4.47541451e-10
6.6954139e-07
4.55924631e-10
6.69441739e-07
4.62464134e-10
6.69343054e-07
4.67301735e-10
6.69245537e-07
4.70570265e-10
6.69149362e-07
4.72395896e-10
6.69054672e-07
4.72898771e-10
6.68961594e-07
4.72194267e-10
6.68870232e-07
4.70392229e-10
6.68780677e-07
4.67596878e-10
6.68693007e-07
4.63905335e-10
6.68607289e-07
4.59408298e-10
6.68523583e-07
4.54188403e-10
6.68441938e-07
4.48320913e-10
6.683624e-07
4.41873334e-10
6.68285004e-07
4.34906228e-10
6.68209781e-07
4.27472989e-10
6.68136755e-07
4.19621219e-10
6.68065946e-07
4.11393479e-10
6.67997365e-07
4.0282745e-10
6.67931021e-07
3.93957373e-10
6.67866919e-07
3.84814689e-10
6.67805059e-07
3.75427963e-10
6.67745442e-07
3.65823864e-10
6.67688062e-07
3.5602732e-10
6.67632918e-07
3.4606101e-10
6.67580004e-07
3.35945909e-10
6.67529318e-07
3.25700734e-10
6.67480855e-07
3.15342022e-10
6.67434615e-07
3.04883174e-10
6.67390596e-07
2.94334788e-10
6.67348802e-07
2.83702825e-10
6.67309234e-07
2.72992987e-10
6.67271902e-07
2.62183133e-10
6.67236787e-07
2.51353341e-10
6.6720393e-07
2.40065196e-10
6.67172829e-07
2.3035309e-10
2.12792479e-10
6.6663388e-07
1.62359928e-10
6.66515378e-07
5.8967595e-10
6.66292408e-07
1.08950786e-09
6.65963398e-07
1.59975876e-09
6.65538194e-07
2.06524754e-09
6.6503409e-07
2.44321684e-09
6.64474129e-07
2.70246879e-09
6.6388478e-07
2.82589957e-09
6.63292853e-07
2.8130008e-09
6.62723085e-07
2.67627394e-09
6.62197288e-07
2.43308206e-09
6.61734437e-07
2.10109658e-09
6.61350125e-07
1.70221592e-09
6.61054312e-07
1.27097701e-09
6.60847521e-07
8.58812905e-10
6.60717243e-07
5.28316306e-10
6.60637079e-07
3.38432031e-10
6.60570297e-07
3.27302911e-10
6.60478783e-07
5.00319576e-10
6.60331034e-07
8.29317529e-10
6.60107066e-07
1.26161391e-09
6.59800344e-07
1.73310059e-09
6.59415911e-07
2.1807253e-09
6.58967779e-07
2.55140141e-09
6.58476631e-07
2.80741982e-09
6.57967053e-07
2.92802471e-09
6.57464711e-07
2.90776008e-09
6.56994191e-07
2.75353017e-09
6.56577503e-07
2.48199738e-09
6.56232852e-07
2.11819692e-09
6.55973282e-07
1.69548675e-09
6.55805045e-07
1.25584537e-09
6.55725926e-07
8.48711505e-10
6.55724013e-07
5.26707891e-10
6.5577776e-07
3.38042975e-10
6.55857957e-07
3.16838379e-10
6.55932582e-07
4.73237928e-10
6.55972633e-07
7.87930112e-10
6.55956821e-07
1.21499798e-09
6.55875014e-07
1.69112888e-09
6.55729348e-07
2.14989381e-09
6.55532415e-07
2.53710035e-09
6.55303005e-07
2.82233526e-09
6.55060717e-07
3.00303172e-09
6.54821163e-07
3.10012096e-09
6.5459312e-07
3.14748722e-09
6.54378203e-07
3.17958308e-09
6.54172617e-07
3.22173717e-09
6.53969904e-07
3.28593306e-09
6.53763517e-07
3.37216319e-09
6.53548407e-07
3.47325306e-09
6.53321469e-07
3.58024394e-09
6.53081142e-07
3.68609949e-09
6.5282671e-07
3.78695449e-09
6.52557724e-07
3.88144595e-09
6.52273738e-07
3.96927246e-09
6.5197433e-07
4.04997523e-09
6.51659248e-07
4.12239e-09
6.51328571e-07
4.18469619e-09
6.50982799e-07
4.23474733e-09
6.5062286e-07
4.27039134e-09
6.50250099e-07
4.28964728e-09
6.49866231e-07
4.29074633e-09
6.49473322e-07
4.27211153e-09
6.49073754e-07
4.23233224e-09
6.48670208e-07
4.17016503e-09
6.48265626e-07
4.08455361e-09
6.47863186e-07
3.97464362e-09
6.47466259e-07
3.83980435e-09
6.47078378e-07
3.67963399e-09
6.46703207e-07
3.49395151e-09
6.46344518e-07
3.28279564e-09
6.46006176e-07
3.04641476e-09
6.45692115e-07
2.78525115e-09
6.45406331e-07
2.49993638e-09
6.45152856e-07
2.19127855e-09
6.4493576e-07
1.86025046e-09
6.44759113e-07
1.50799977e-09
6.4462688e-07
1.13586526e-09
6.44542549e-07
7.45490945e-10
6.44508135e-07
3.3926123e-10
6.44527271e-07
-8.14127333e-11
6.44605483e-07
-5.15010464e-10
6.4474536e-07
-9.58365939e-10
6.44948963e-07
-1.40917689e-09
6.45217824e-07
-1.86460695e-09
6.45553062e-07
-2.32152982e-09
6.4595516e-07
-2.77649217e-09
6.46423891e-07
-3.22574414e-09
6.46958298e-07
-3.66531011e-09
6.47556647e-07
-4.09105708e-09
6.48216412e-07
-4.49877089e-09
6.48934271e-07
-4.88423761e-09
6.49706123e-07
-5.24335419e-09
6.50527129e-07
-5.57224127e-09
6.51391773e-07
-5.86734779e-09
6.5229394e-07
-6.12556761e-09
6.53227026e-07
-6.34433725e-09
6.54184048e-07
-6.5217046e-09
6.55157786e-07
-6.65639424e-09
6.56140923e-07
-6.74783892e-09
6.57126187e-07
-6.7961744e-09
6.58106493e-07
-6.80223172e-09
6.59075072e-07
-6.76748841e-09
6.60025586e-07
-6.69401411e-09
6.60952222e-07
-6.58438054e-09
6.6184977e-07
-6.44159023e-09
6.62713674e-07
-6.26896352e-09
6.63540063e-07
-6.07005307e-09
6.64325761e-07
-5.84854063e-09
6.6506828e-07
-5.608152e-09
6.65765791e-07
-5.3525638e-09
6.66417087e-07
-5.08533947e-09
6.67021537e-07
-4.80986608e-09
6.67579028e-07
-4.52929512e-09
6.68089907e-07
-4.24650948e-09
6.68554932e-07
-3.96409129e-09
6.68975243e-07
-3.68429389e-09
6.69352348e-07
-3.40905464e-09
6.69688037e-07
-3.14003476e-09
6.69984281e-07
-2.87864298e-09
6.70243174e-07
-2.62604386e-09
6.70466892e-07
-2.38316153e-09
6.70657645e-07
-2.15069972e-09
6.70817627e-07
-1.92916332e-09
6.7094903e-07
-1.71887013e-09
6.71054035e-07
-1.51997026e-09
6.71134779e-07
-1.33247542e-09
6.71193338e-07
-1.15628878e-09
6.71231682e-07
-9.91223274e-10
6.71251649e-07
-8.37004528e-10
6.71255059e-07
-6.93269114e-10
6.71243662e-07
-5.59621627e-10
6.7121912e-07
-4.35646031e-10
6.71182989e-07
-3.2089221e-10
6.71136577e-07
-2.14773365e-10
6.71081096e-07
-1.16880508e-10
6.71020003e-07
-2.89767081e-11
6.70955049e-07
5.17039941e-11
6.70883375e-07
1.24851702e-10
6.70806413e-07
1.90154152e-10
6.7072465e-07
2.48203692e-10
6.70638283e-07
2.99389532e-10
6.70547768e-07
3.44247422e-10
6.70453749e-07
3.83428523e-10
6.70356877e-07
4.17550926e-10
6.70257728e-07
4.47115163e-10
6.70156832e-07
4.72545316e-10
6.70054703e-07
4.94234282e-10
6.69951827e-07
5.12539011e-10
6.69848651e-07
5.27777815e-10
6.69745571e-07
5.40238744e-10
6.69642931e-07
5.50181525e-10
6.69541018e-07
5.57837494e-10
6.6944007e-07
5.6341229e-10
6.69340282e-07
5.67089581e-10
6.69241817e-07
5.69035497e-10
6.69144812e-07
5.69401477e-10
6.69049384e-07
5.68326355e-10
6.68955638e-07
5.65939827e-10
6.68863667e-07
5.62363207e-10
6.68773554e-07
5.5771043e-10
6.68685372e-07
5.52087025e-10
6.68599189e-07
5.45591588e-10
6.68515063e-07
5.38314356e-10
6.68433046e-07
5.30338287e-10
6.6835318e-07
5.21738585e-10
6.68275503e-07
5.12583494e-10
6.68200042e-07
5.02933814e-10
6.68126819e-07
4.92844271e-10
6.68055849e-07
4.82364095e-10
6.67987139e-07
4.71536881e-10
6.67920695e-07
4.60401965e-10
6.67856514e-07
4.48994943e-10
6.67794595e-07
4.37347434e-10
6.67734931e-07
4.25488192e-10
6.67677515e-07
4.1344335e-10
6.6762234e-07
4.01235941e-10
6.67569399e-07
3.88886715e-10
6.67518686e-07
3.76413693e-10
6.67470195e-07
3.63832488e-10
6.67423923e-07
3.51155409e-10
6.67379866e-07
3.38392026e-10
6.67338021e-07
3.25547446e-10
6.67298387e-07
3.12627348e-10
6.67260963e-07
2.99607415e-10
6.67225737e-07
2.86578835e-10
6.67192777e-07
2.73025492e-10
6.67161896e-07
2.6123405e-10
2.40059629e-10
6.66641551e-07
1.87509281e-10
6.66531559e-07
6.99667712e-10
6.6631568e-07
1.30538643e-09
6.65989121e-07
1.92631859e-09
6.65559997e-07
2.49437076e-09
6.65045486e-07
2.9577281e-09
6.64469514e-07
3.27844038e-09
6.63860251e-07
3.43516308e-09
6.63246905e-07
3.42634629e-09
6.62657063e-07
3.26611618e-09
6.62115487e-07
2.97465811e-09
6.61643722e-07
2.57286203e-09
6.61258783e-07
2.08715433e-09
6.60969891e-07
1.55986979e-09
6.60774589e-07
1.05411442e-09
6.60657466e-07
6.45439642e-10
6.60592059e-07
4.03838922e-10
6.60544222e-07
3.75139708e-10
6.60476633e-07
5.67908143e-10
6.60354058e-07
9.5189347e-10
6.60150128e-07
1.46554342e-09
6.5985252e-07
2.03070836e-09
6.5946411e-07
2.56913603e-09
6.59000273e-07
3.01523821e-09
6.58484857e-07
3.32283514e-09
6.5794628e-07
3.46660252e-09
6.57414186e-07
3.43985418e-09
6.5691696e-07
3.25075522e-09
6.56479983e-07
2.91897464e-09
6.56124186e-07
2.47399444e-09
6.55864482e-07
1.95519059e-09
6.55707888e-07
1.41243918e-09
6.55651558e-07
9.05042037e-10
6.55681384e-07
4.96881138e-10
6.55772461e-07
2.46966119e-10
6.55893121e-07
1.96178576e-10
6.56008933e-07
3.57426041e-10
6.56086585e-07
7.10277643e-10
6.56100895e-07
1.20068804e-09
6.56039733e-07
1.75229135e-09
6.5590532e-07
2.28430618e-09
6.55711961e-07
2.73045933e-09
6.55481017e-07
3.05327987e-09
6.55234747e-07
3.24930173e-09
6.54990903e-07
3.34396523e-09
6.54759557e-07
3.37883292e-09
6.54542734e-07
3.39640639e-09
6.54336344e-07
3.4281263e-09
6.54133237e-07
3.48904061e-09
6.5392605e-07
3.57934967e-09
6.53709012e-07
3.69029143e-09
6.53478465e-07
3.81079081e-09
6.53232475e-07
3.93208978e-09
6.52970078e-07
4.04935091e-09
6.52690655e-07
4.16086908e-09
6.52393631e-07
4.2662971e-09
6.52078483e-07
4.36512261e-09
6.51744906e-07
4.45596774e-09
6.51392968e-07
4.53663348e-09
6.51023214e-07
4.6045018e-09
6.50636672e-07
4.65693282e-09
6.50234832e-07
4.69148721e-09
6.49819599e-07
4.70598014e-09
6.49393253e-07
4.69845699e-09
6.48958424e-07
4.6671614e-09
6.48518055e-07
4.61053404e-09
6.48075375e-07
4.52723413e-09
6.47633863e-07
4.41615539e-09
6.47197218e-07
4.27644941e-09
6.46769321e-07
4.10753096e-09
6.46354203e-07
3.90906938e-09
6.4595601e-07
3.68098862e-09
6.45578968e-07
3.4234568e-09
6.45227351e-07
3.13686845e-09
6.4490545e-07
2.82183703e-09
6.44617546e-07
2.47918245e-09
6.44367876e-07
2.10992048e-09
6.44160606e-07
1.71527004e-09
6.43999819e-07
1.29665218e-09
6.43889659e-07
8.55650279e-10
6.43834863e-07
3.94058125e-10
6.43839218e-07
-8.57681109e-11
6.43905498e-07
-5.81290133e-10
6.44036932e-07
-1.08979993e-09
6.44236213e-07
-1.60845783e-09
6.44505523e-07
-2.13391726e-09
6.44846378e-07
-2.66238468e-09
6.45259604e-07
-3.1897179e-09
6.45745279e-07
-3.7114192e-09
6.46302652e-07
-4.22268335e-09
6.46930075e-07
-4.71848003e-09
6.47624962e-07
-5.19365799e-09
6.48383777e-07
-5.64305273e-09
6.49202049e-07
-6.0616263e-09
6.50074418e-07
-6.44461017e-09
6.50994708e-07
-6.78763779e-09
6.5195603e-07
-7.08688953e-09
6.52950908e-07
-7.33921494e-09
6.53971424e-07
-7.54222094e-09
6.55009384e-07
-7.69435478e-09
6.56056491e-07
-7.79494539e-09
6.57104516e-07
-7.84419907e-09
6.58145472e-07
-7.84318784e-09
6.5917177e-07
-7.79378635e-09
6.60176354e-07
-7.69859874e-09
6.61152816e-07
-7.56084228e-09
6.62095477e-07
-7.38425119e-09
6.62999447e-07
-7.17293305e-09
6.63860651e-07
-6.93125741e-09
6.64675836e-07
-6.66372619e-09
6.65442551e-07
-6.37486683e-09
6.66159106e-07
-6.06911887e-09
6.66824523e-07
-5.75075642e-09
6.67438472e-07
-5.42381437e-09
6.68001199e-07
-5.09202227e-09
6.68513461e-07
-4.75877124e-09
6.68976455e-07
-4.42708543e-09
6.69391762e-07
-4.09960141e-09
6.69761288e-07
-3.77858046e-09
6.70087185e-07
-3.46593156e-09
6.70371774e-07
-3.16323264e-09
6.70617487e-07
-2.87175657e-09
6.70826813e-07
-2.59248735e-09
6.71002261e-07
-2.32614816e-09
6.71146323e-07
-2.07322477e-09
6.71261446e-07
-1.83399352e-09
6.71350022e-07
-1.60854566e-09
6.7141436e-07
-1.39681407e-09
6.71456676e-07
-1.19860392e-09
6.71479068e-07
-1.01361534e-09
6.71483523e-07
-8.41460445e-10
6.71471935e-07
-6.81680727e-10
6.71446087e-07
-5.33773983e-10
6.71407672e-07
-3.97230405e-10
6.71358364e-07
-2.71584533e-10
6.7130009e-07
-1.56499543e-10
6.71234667e-07
-5.14569334e-11
6.71161139e-07
4.45509719e-11
6.71081415e-07
1.31428038e-10
6.709966e-07
2.09667216e-10
6.70907197e-07
2.79556613e-10
6.70813839e-07
3.41561477e-10
6.70717019e-07
3.96209551e-10
6.706172e-07
4.44066925e-10
6.70514894e-07
4.85734153e-10
6.7041064e-07
5.21805562e-10
6.70304936e-07
5.52818174e-10
6.70198234e-07
5.79247888e-10
6.70090935e-07
6.01533412e-10
6.69983397e-07
6.20076373e-10
6.69875942e-07
6.35233193e-10
6.69768864e-07
6.47316731e-10
6.69662442e-07
6.56603735e-10
6.69556935e-07
6.63343937e-10
6.69452582e-07
6.67766126e-10
6.6934959e-07
6.70080812e-10
6.69248143e-07
6.70482949e-10
6.69148392e-07
6.69152698e-10
6.69050462e-07
6.66255637e-10
6.68954458e-07
6.61944646e-10
6.68860461e-07
6.56360072e-10
6.6876854e-07
6.49631391e-10
6.6867875e-07
6.41876778e-10
6.68591136e-07
6.33205298e-10
6.68505735e-07
6.23715598e-10
6.68422576e-07
6.13497558e-10
6.68341682e-07
6.02632153e-10
6.68263073e-07
5.91192676e-10
6.68186763e-07
5.79244323e-10
6.68112761e-07
5.66845791e-10
6.68041075e-07
5.54049917e-10
6.67971709e-07
5.40903484e-10
6.67904662e-07
5.27448746e-10
6.67839933e-07
5.13723966e-10
6.67777517e-07
4.99763072e-10
6.67717408e-07
4.85596848e-10
6.67659599e-07
4.71253136e-10
6.67604078e-07
4.56756237e-10
6.67550837e-07
4.42127806e-10
6.67499865e-07
4.27386345e-10
6.6745115e-07
4.12547604e-10
6.67404681e-07
3.97623668e-10
6.6736045e-07
3.82623818e-10
6.67318444e-07
3.67552811e-10
6.67278654e-07
3.52417361e-10
6.6724107e-07
3.37191432e-10
6.67205658e-07
3.21990574e-10
6.67172445e-07
3.06238631e-10
6.67140972e-07
2.92707489e-10
2.68600473e-10
6.66640259e-07
2.13850439e-10
6.6652903e-07
8.1089647e-10
6.66311148e-07
1.52326833e-09
6.65982184e-07
2.25528275e-09
6.65550422e-07
2.92613255e-09
6.65033041e-07
3.47510917e-09
6.64453864e-07
3.8576174e-09
6.63840837e-07
4.0481904e-09
6.63222906e-07
4.04427726e-09
6.626274e-07
3.86162236e-09
6.62078759e-07
3.52329907e-09
6.61598168e-07
3.05345295e-09
6.61202388e-07
2.48293385e-09
6.60901442e-07
1.86081577e-09
6.60695247e-07
1.26030992e-09
6.60571463e-07
7.6922338e-10
6.60502928e-07
4.72374032e-10
6.60452541e-07
4.25526924e-10
6.60380692e-07
6.39756816e-10
6.60253198e-07
1.07938753e-09
6.60046483e-07
1.67225874e-09
6.59749642e-07
2.32754942e-09
6.59364778e-07
2.95399957e-09
6.58905619e-07
3.4743977e-09
6.58394533e-07
3.83392097e-09
6.57858956e-07
4.00217929e-09
6.57328106e-07
3.97070384e-09
6.56830418e-07
3.74844354e-09
6.56391664e-07
3.35772922e-09
6.56033391e-07
2.83226716e-09
6.55771249e-07
2.21733235e-09
6.55613048e-07
1.57064059e-09
6.55556892e-07
9.61197222e-10
6.55590302e-07
4.63472029e-10
6.55690954e-07
1.46313622e-10
6.55826335e-07
6.07980843e-11
6.55957002e-07
2.26758871e-10
6.56050106e-07
6.17173087e-10
6.56081057e-07
1.16973748e-09
6.56037435e-07
1.79591364e-09
6.55920573e-07
2.40116732e-09
6.5574385e-07
2.90718244e-09
6.55528053e-07
3.26907757e-09
6.55295325e-07
3.48202951e-09
6.55063647e-07
3.57564261e-09
6.54843447e-07
3.59903336e-09
6.54637012e-07
3.6028413e-09
6.54440308e-07
3.62483018e-09
6.54246017e-07
3.68333162e-09
6.54046465e-07
3.77890205e-09
6.53835509e-07
3.90124725e-09
6.5360914e-07
4.03715998e-09
6.5336512e-07
4.17611013e-09
6.53102238e-07
4.31223196e-09
6.52819678e-07
4.44342928e-09
6.52516709e-07
4.56926665e-09
6.52192696e-07
4.68913584e-09
6.51847265e-07
4.80139822e-09
6.51480475e-07
4.90342317e-09
6.51092913e-07
4.9920641e-09
6.5068571e-07
5.06413561e-09
6.50260513e-07
5.11668415e-09
6.49819437e-07
5.14705648e-09
6.49365021e-07
5.15287278e-09
6.48900193e-07
5.13198994e-09
6.48428225e-07
5.08250128e-09
6.47952696e-07
5.00276383e-09
6.47477432e-07
4.89141925e-09
6.47006461e-07
4.7474201e-09
6.4654396e-07
4.5700318e-09
6.46094215e-07
4.35881454e-09
6.45661591e-07
4.11361286e-09
6.45250513e-07
3.83453495e-09
6.44865453e-07
3.52192808e-09
6.44510919e-07
3.17637118e-09
6.44191436e-07
2.79866503e-09
6.43911533e-07
2.3898238e-09
6.43675721e-07
1.95108193e-09
6.43488474e-07
1.48389955e-09
6.43354063e-07
9.90061141e-10
6.43276387e-07
4.71734278e-10
6.43259508e-07
-6.88890769e-11
6.43307951e-07
-6.29733624e-10
6.43425329e-07
-1.20717793e-09
6.43614776e-07
-1.79790449e-09
6.43878879e-07
-2.39802072e-09
6.4421964e-07
-3.00314548e-09
6.44638331e-07
-3.60840871e-09
6.45135392e-07
-4.20848002e-09
6.45710343e-07
-4.79763414e-09
6.46361701e-07
-5.36983846e-09
6.47086919e-07
-5.91887598e-09
6.47882345e-07
-6.43847901e-09
6.48743222e-07
-6.92250296e-09
6.4966372e-07
-7.36510766e-09
6.50637011e-07
-7.76092962e-09
6.51655391e-07
-8.10526913e-09
6.52710426e-07
-8.39425015e-09
6.53793143e-07
-8.6249378e-09
6.54894233e-07
-8.79544481e-09
6.56004272e-07
-8.90498443e-09
6.57113938e-07
-8.95386489e-09
6.5821422e-07
-8.94346962e-09
6.59296607e-07
-8.87617382e-09
6.60353254e-07
-8.7552456e-09
6.61377107e-07
-8.58469525e-09
6.62362003e-07
-8.36914678e-09
6.63302725e-07
-8.11365543e-09
6.64195031e-07
-7.82356384e-09
6.65035645e-07
-7.50433985e-09
6.65822222e-07
-7.16144353e-09
6.66553293e-07
-6.80019034e-09
6.67228195e-07
-6.42565852e-09
6.67846985e-07
-6.04260423e-09
6.68410352e-07
-5.65538869e-09
6.68919526e-07
-5.2679452e-09
6.69376193e-07
-4.88375323e-09
6.69782415e-07
-4.50582278e-09
6.70140546e-07
-4.13671156e-09
6.70453161e-07
-3.77854688e-09
6.70722978e-07
-3.43304931e-09
6.70952791e-07
-3.10157018e-09
6.71145423e-07
-2.78511908e-09
6.71303676e-07
-2.48440122e-09
6.71430299e-07
-2.19984789e-09
6.71527961e-07
-1.93165526e-09
6.71599233e-07
-1.67981708e-09
6.71646574e-07
-1.44415575e-09
6.71672328e-07
-1.22435746e-09
6.71678713e-07
-1.02000013e-09
6.71667829e-07
-8.30577129e-10
6.71641671e-07
-6.55522057e-10
6.71602121e-07
-4.94224308e-10
6.715509e-07
-3.46009619e-10
6.71489366e-07
-2.10050696e-10
6.71418336e-07
-8.54694924e-11
6.71338925e-07
2.79546238e-11
6.71254184e-07
1.29291244e-10
6.71164228e-07
2.21384797e-10
6.7106985e-07
3.04045225e-10
6.70971677e-07
3.77729081e-10
6.70870219e-07
4.43019805e-10
6.70765944e-07
5.00484081e-10
6.70659302e-07
5.50709101e-10
6.70550742e-07
5.94294263e-10
6.70440721e-07
6.31826707e-10
6.70329681e-07
6.63857716e-10
6.70218042e-07
6.90886938e-10
6.70106206e-07
7.13369341e-10
6.69994559e-07
7.31724164e-10
6.69883451e-07
7.46341173e-10
6.69773186e-07
7.57581103e-10
6.69664018e-07
7.65772194e-10
6.69556153e-07
7.71209182e-10
6.69449763e-07
7.7415603e-10
6.69344994e-07
7.74849938e-10
6.6924197e-07
7.73506362e-10
6.69140801e-07
7.70321941e-10
6.69041581e-07
7.65475729e-10
6.68944393e-07
7.5913265e-10
6.68849309e-07
7.51444185e-10
6.6875639e-07
7.42550039e-10
6.68665689e-07
7.32577387e-10
6.68577251e-07
7.21643499e-10
6.68491112e-07
7.09854527e-10
6.68407302e-07
6.97307545e-10
6.68325844e-07
6.8409038e-10
6.68246754e-07
6.70282895e-10
6.68170042e-07
6.55956387e-10
6.68095712e-07
6.41175245e-10
6.68023765e-07
6.25997482e-10
6.67954194e-07
6.10474292e-10
6.67886991e-07
5.94651584e-10
6.67822145e-07
5.78570427e-10
6.67759641e-07
5.62266613e-10
6.67699466e-07
5.4577203e-10
6.67641604e-07
5.29114986e-10
6.67586041e-07
5.12319683e-10
6.67532761e-07
4.95407389e-10
6.67481751e-07
4.78396028e-10
6.67432998e-07
4.61300782e-10
6.67386489e-07
4.44133239e-10
6.6734221e-07
4.26902437e-10
6.6730015e-07
4.09613303e-10
6.67260293e-07
3.92273517e-10
6.67222629e-07
3.74856236e-10
6.67187131e-07
3.57487877e-10
6.67153855e-07
3.39514882e-10
6.67122595e-07
3.23967221e-10
2.96260034e-10
6.66640216e-07
2.40334533e-10
6.66528906e-07
9.22206663e-10
6.66310428e-07
1.74174612e-09
6.65979315e-07
2.58639527e-09
6.65542851e-07
3.36259694e-09
6.65017587e-07
4.00037282e-09
6.64427414e-07
4.44779049e-09
6.6380109e-07
4.67451475e-09
6.63168873e-07
4.67649425e-09
6.62559581e-07
4.47091447e-09
6.61999159e-07
4.08372135e-09
6.61510228e-07
3.54238391e-09
6.61110843e-07
2.88231875e-09
6.60811691e-07
2.15996782e-09
6.60612143e-07
1.45985814e-09
6.60496875e-07
8.84490609e-10
6.60437659e-07
5.31590115e-10
6.60396727e-07
4.66458861e-10
6.60334323e-07
7.02161264e-10
6.60214318e-07