/*--------------------------------*- C++ -*----------------------------------*\
| =========                 |                                                 |
| \\      /  F ield         | OpenFOAM: The Open Source CFD Toolbox           |
|  \\    /   O peration     | Version:  v2012                                 |
|   \\  /    A nd           | Website:  www.openfoam.com                      |
|    \\/     M anipulation  |                                                 |
\*---------------------------------------------------------------------------*/
FoamFile
{
    version     2.0;
    format      ascii;
    class       volScalarField;
    location    "2.44";
    object      rAU;
}
// * * * * * * * * * * * * * * * * * * * * * * * * * * * * * * * * * * * * * //

dimensions      [0 0 1 0 0 0 0];


internalField   nonuniform List<scalar> 
28416
(
0.000444858925
0.000444863408
0.000444862191
0.0004448614
0.000444861263
0.000444861928
0.000444863451
0.000444865801
0.000444868857
0.000444872436
0.000444876335
0.000444880364
0.00044488432
0.000444887967
0.000444891035
0.000444893273
0.000444894532
0.000444894823
0.000444894319
0.00044489331
0.000444892123
0.000444891084
0.000444890489
0.000444890556
0.000444891399
0.000444893034
0.000444895398
0.00044489836
0.000444901738
0.000444905302
0.000444908796
0.000444911939
0.000444914437
0.000444916076
0.000444916709
0.000444916265
0.000444914828
0.000444912634
0.000444910031
0.00044490741
0.000444905125
0.000444903419
0.000444902386
0.000444901974
0.000444902024
0.000444902337
0.000444902734
0.000444903103
0.000444903404
0.000444903658
0.000444903914
0.000444904226
0.000444904633
0.00044490516
0.000444905817
0.000444906609
0.000444907544
0.00044490863
0.000444909877
0.000444911297
0.000444912895
0.000444914678
0.000444916647
0.000444918802
0.00044492114
0.000444923653
0.000444926335
0.000444929174
0.000444932157
0.000444935269
0.000444938491
0.000444941803
0.000444945184
0.000444948607
0.000444952045
0.000444955471
0.000444958854
0.000444962166
0.000444965381
0.000444968474
0.000444971424
0.000444974052
0.000444972274
0.000444970134
0.00044496768
0.000444964921
0.000444961862
0.000444958514
0.000444954888
0.000444951001
0.000444946873
0.000444942529
0.000444937994
0.000444933298
0.000444928474
0.000444923554
0.000444918572
0.000444913563
0.000444908561
0.000444903597
0.000444898706
0.000444893915
0.000444889253
0.000444884743
0.00044488041
0.00044487627
0.000444872341
0.000444868633
0.000444865156
0.000444861916
0.000444858916
0.000444856157
0.000444853635
0.000444851349
0.000444849291
0.000444847454
0.000444845833
0.00044484442
0.000444843206
0.000444842181
0.000444841332
0.000444840645
0.000444840109
0.000444839714
0.000444839448
0.000444839299
0.000444839258
0.000444839314
0.000444839457
0.000444839679
0.000444839969
0.00044484032
0.000444840727
0.000444841181
0.000444841675
0.000444842203
0.000444842756
0.000444843322
0.000444843891
0.000444844443
0.00044484478
0.000444844792
0.000444844767
0.000444844821
0.000444844942
0.000444845117
0.000444845341
0.000444845606
0.000444845907
0.000444846237
0.000444846591
0.000444846966
0.000444847358
0.000444847763
0.000444848181
0.000444848608
0.000444849043
0.000444849484
0.00044484993
0.000444850379
0.00044485083
0.000444851282
0.000444851731
0.000444852181
0.000444852626
0.000444853067
0.000444853503
0.000444853934
0.000444854358
0.000444854775
0.000444855185
0.000444855587
0.00044485598
0.000444856365
0.000444856742
0.000444857108
0.000444857467
0.000444857816
0.000444858155
0.000444858484
0.000444858803
0.000444859113
0.000444859411
0.000444859699
0.000444859977
0.000444860243
0.000444860499
0.000444860745
0.000444860969
0.000444867138
0.000444854567
0.000444859282
0.000444858372
0.000444857979
0.000444858278
0.000444859359
0.000444861222
0.000444863795
0.000444866935
0.000444870457
0.000444874169
0.000444877896
0.000444881463
0.000444884677
0.000444887335
0.00044488926
0.000444890357
0.000444890649
0.000444890303
0.000444889602
0.000444888879
0.000444888442
0.000444888536
0.000444889307
0.000444890798
0.000444892954
0.000444895655
0.000444898741
0.000444902023
0.000444905299
0.000444908358
0.000444910988
0.000444912993
0.000444914223
0.000444914597
0.000444914139
0.000444912978
0.000444911354
0.000444909577
0.000444907964
0.000444906774
0.000444906154
0.000444906121
0.000444906576
0.000444907349
0.000444908257
0.000444909157
0.00044490997
0.000444910685
0.000444911338
0.000444911984
0.000444912674
0.00044491344
0.000444914302
0.000444915265
0.000444916334
0.000444917511
0.000444918804
0.000444920219
0.000444921764
0.000444923442
0.000444925256
0.000444927203
0.000444929281
0.000444931483
0.000444933801
0.000444936227
0.000444938747
0.000444941347
0.000444944012
0.000444946723
0.000444949462
0.000444952208
0.000444954937
0.000444957628
0.000444960257
0.000444962798
0.000444965227
0.00044496752
0.00044496965
0.000444971589
0.000444972806
0.000444970713
0.000444968298
0.000444965549
0.000444962471
0.000444959069
0.000444955354
0.00044495134
0.000444947046
0.000444942495
0.000444937716
0.000444932738
0.000444927593
0.000444922322
0.00044491696
0.000444911546
0.000444906122
0.000444900725
0.000444895393
0.000444890164
0.00044488507
0.000444880143
0.00044487541
0.000444870895
0.000444866617
0.000444862592
0.000444858831
0.000444855342
0.000444852128
0.000444849192
0.000444846528
0.000444844132
0.000444841999
0.000444840116
0.000444838475
0.000444837064
0.000444835871
0.000444834882
0.000444834087
0.000444833468
0.000444833013
0.000444832705
0.000444832535
0.000444832486
0.000444832546
0.000444832706
0.000444832954
0.000444833279
0.000444833673
0.000444834125
0.000444834627
0.000444835172
0.000444835753
0.000444836361
0.000444836992
0.000444837639
0.000444838296
0.000444838968
0.00044483936
0.000444839507
0.000444839627
0.000444839809
0.000444840041
0.000444840321
0.000444840638
0.000444840988
0.000444841367
0.000444841772
0.000444842195
0.000444842635
0.000444843088
0.000444843552
0.000444844023
0.000444844501
0.000444844981
0.000444845464
0.000444845948
0.00044484643
0.000444846911
0.000444847388
0.000444847862
0.000444848329
0.000444848792
0.000444849248
0.000444849696
0.000444850136
0.000444850569
0.000444850993
0.000444851407
0.000444851812
0.000444852207
0.000444852592
0.000444852968
0.000444853333
0.000444853687
0.000444854032
0.000444854366
0.000444854689
0.000444855001
0.000444855303
0.000444855593
0.000444855872
0.000444856141
0.000444856399
0.000444856645
0.000444856881
0.000444857107
0.000444857316
0.000444863455
0.000444854458
0.000444858776
0.000444857358
0.000444856433
0.000444856231
0.000444856885
0.000444858432
0.000444860827
0.000444863931
0.000444867557
0.0004448715
0.000444875575
0.000444879589
0.000444883313
0.00044488648
0.000444888835
0.000444890211
0.000444890602
0.000444890178
0.000444889245
0.000444888176
0.000444887334
0.000444887015
0.000444887417
0.000444888629
0.000444890629
0.000444893314
0.00044489652
0.000444900051
0.000444903685
0.000444907182
0.000444910296
0.000444912785
0.00044491444
0.000444915125
0.000444914815
0.000444913626
0.000444911804
0.000444909695
0.000444907676
0.000444906077
0.000444905108
0.000444904829
0.000444905151
0.000444905887
0.000444906816
0.000444907756
0.000444908596
0.000444909309
0.000444909927
0.000444910515
0.000444911134
0.000444911827
0.000444912619
0.000444913518
0.000444914528
0.000444915654
0.000444916903
0.000444918283
0.000444919804
0.000444921471
0.000444923288
0.000444925255
0.00044492737
0.000444929627
0.000444932018
0.000444934536
0.000444937166
0.000444939896
0.000444942709
0.000444945588
0.000444948512
0.000444951461
0.000444954413
0.000444957342
0.000444960226
0.000444963037
0.000444965749
0.000444968336
0.00044497077
0.000444973028
0.000444974318
0.000444971992
0.000444969314
0.00044496628
0.000444962897
0.000444959171
0.000444955116
0.000444950747
0.000444946086
0.000444941159
0.000444935998
0.000444930636
0.000444925111
0.000444919466
0.000444913742
0.000444907983
0.000444902236
0.000444896543
0.000444890945
0.000444885485
0.000444880198
0.000444875117
0.00044487027
0.000444865683
0.000444861373
0.000444857357
0.000444853643
0.000444850236
0.000444847136
0.000444844343
0.000444841848
0.000444839643
0.000444837718
0.000444836059
0.000444834652
0.000444833482
0.000444832533
0.00044483179
0.000444831237
0.000444830857
0.000444830633
0.000444830551
0.000444830596
0.000444830754
0.000444831012
0.000444831358
0.000444831781
0.000444832269
0.000444832816
0.000444833409
0.000444834043
0.000444834711
0.000444835405
0.000444836118
0.000444836847
0.000444837587
0.000444838321
0.000444838783
0.000444838844
0.000444838903
0.000444839024
0.000444839205
0.000444839439
0.00044483972
0.000444840042
0.000444840398
0.000444840784
0.000444841197
0.000444841631
0.000444842081
0.000444842546
0.000444843021
0.000444843503
0.000444843992
0.000444844485
0.000444844979
0.000444845475
0.000444845969
0.000444846462
0.000444846951
0.000444847437
0.000444847917
0.000444848392
0.000444848861
0.000444849322
0.000444849775
0.00044485022
0.000444850656
0.000444851083
0.000444851501
0.000444851908
0.000444852305
0.000444852693
0.00044485307
0.000444853436
0.000444853793
0.000444854138
0.000444854472
0.000444854796
0.000444855109
0.000444855411
0.000444855702
0.000444855983
0.000444856252
0.00044485651
0.000444856758
0.000444856996
0.000444857214
0.000444863367
0.000444854289
0.000444858127
0.000444856129
0.000444854624
0.000444853917
0.000444854187
0.000444855503
0.000444857829
0.000444861024
0.000444864873
0.000444869146
0.000444873625
0.000444878087
0.000444882268
0.000444885856
0.000444888543
0.000444890108
0.000444890489
0.00044488984
0.000444888495
0.000444886905
0.000444885536
0.000444884772
0.000444884869
0.000444885942
0.000444887973
0.000444890844
0.000444894367
0.000444898312
0.000444902419
0.00044490641
0.000444909992
0.000444912877
0.00044491481
0.000444915616
0.00044491525
0.000444913822
0.000444911611
0.000444909022
0.000444906511
0.000444904478
0.00044490319
0.000444902727
0.000444902992
0.000444903762
0.000444904774
0.000444905798
0.000444906695
0.000444907426
0.000444908028
0.000444908575
0.000444909143
0.000444909786
0.000444910535
0.0004449114
0.000444912387
0.000444913501
0.000444914751
0.000444916146
0.000444917699
0.000444919417
0.000444921305
0.000444923365
0.000444925594
0.000444927989
0.000444930541
0.000444933242
0.00044493608
0.000444939038
0.000444942102
0.000444945251
0.000444948465
0.000444951721
0.000444954996
0.000444958263
0.000444961498
0.000444964673
0.000444967759
0.000444970731
0.000444973557
0.000444976204
0.000444977747
0.000444975179
0.000444972227
0.000444968889
0.000444965168
0.000444961073
0.000444956617
0.000444951819
0.000444946703
0.000444941299
0.000444935643
0.000444929773
0.000444923733
0.000444917573
0.00044491134
0.000444905086
0.000444898864
0.000444892722
0.00044488671
0.000444880875
0.000444875255
0.000444869889
0.000444864807
0.000444860036
0.000444855594
0.000444851496
0.000444847749
0.000444844356
0.000444841314
0.000444838618
0.000444836257
0.000444834217
0.000444832484
0.000444831039
0.000444829863
0.000444828939
0.000444828245
0.000444827762
0.000444827472
0.000444827353
0.000444827389
0.00044482756
0.000444827853
0.000444828251
0.000444828738
0.000444829304
0.000444829935
0.00044483062
0.000444831352
0.000444832119
0.000444832914
0.000444833732
0.000444834564
0.000444835404
0.000444836247
0.000444837084
0.000444837683
0.000444837795
0.000444837829
0.000444837929
0.000444838089
0.000444838306
0.000444838571
0.000444838883
0.000444839232
0.000444839615
0.000444840026
0.000444840462
0.000444840918
0.00044484139
0.000444841877
0.000444842375
0.000444842881
0.000444843393
0.000444843909
0.000444844426
0.000444844945
0.000444845462
0.000444845976
0.000444846485
0.000444846991
0.000444847491
0.000444847985
0.000444848471
0.000444848949
0.000444849419
0.000444849881
0.000444850333
0.000444850776
0.000444851209
0.000444851632
0.000444852044
0.000444852446
0.000444852838
0.000444853218
0.000444853588
0.000444853947
0.000444854295
0.000444854631
0.000444854957
0.000444855272
0.000444855575
0.000444855868
0.000444856149
0.000444856419
0.000444856679
0.00044485693
0.00044485716
0.000444863335
0.000444854159
0.000444857566
0.000444855032
0.000444852969
0.000444851749
0.000444851595
0.000444852612
0.000444854785
0.000444857979
0.000444861974
0.000444866523
0.000444871398
0.000444876351
0.00044488108
0.000444885209
0.000444888352
0.000444890214
0.000444890701
0.000444889962
0.000444888355
0.000444886372
0.000444884536
0.000444883303
0.000444882995
0.000444883781
0.000444885672
0.000444888562
0.000444892258
0.000444896515
0.000444901048
0.000444905544
0.000444909668
0.000444913075
0.000444915448
0.000444916548
0.000444916283
0.000444914754
0.000444912269
0.000444909275
0.000444906291
0.000444903793
0.000444902113
0.000444901373
0.000444901483
0.000444902197
0.00044490321
0.000444904251
0.000444905148
0.000444905846
0.000444906382
0.000444906839
0.000444907307
0.00044490785
0.000444908505
0.000444909286
0.000444910199
0.000444911251
0.000444912451
0.000444913814
0.000444915352
0.000444917075
0.000444918992
0.000444921102
0.000444923408
0.000444925903
0.000444928581
0.000444931433
0.000444934446
0.000444937602
0.000444940888
0.00044494428
0.000444947758
0.0004449513
0.00044495488
0.000444958471
0.000444962048
0.000444965581
0.000444969041
0.000444972397
0.000444975619
0.000444978674
0.000444980696
0.000444977902
0.000444974687
0.000444971051
0.000444966998
0.000444962535
0.00044495768
0.000444952451
0.000444946878
0.000444940991
0.000444934833
0.000444928448
0.000444921885
0.000444915201
0.00044490845
0.000444901694
0.000444894991
0.0004448884
0.000444881975
0.000444875771
0.000444869831
0.000444864198
0.000444858904
0.000444853978
0.000444849437
0.000444845297
0.00044484156
0.000444838227
0.000444835291
0.000444832743
0.000444830564
0.000444828738
0.000444827244
0.000444826058
0.000444825157
0.000444824518
0.000444824115
0.000444823925
0.000444823926
0.000444824095
0.000444824412
0.000444824855
0.00044482541
0.000444826057
0.000444826782
0.000444827573
0.000444828415
0.000444829298
0.000444830214
0.000444831152
0.000444832104
0.000444833065
0.000444834027
0.000444834985
0.00044483594
0.000444836741
0.00044483692
0.000444836909
0.000444836969
0.000444837095
0.00044483728
0.00044483752
0.000444837809
0.000444838142
0.000444838514
0.000444838918
0.000444839351
0.00044483981
0.000444840288
0.000444840782
0.00044484129
0.000444841807
0.000444842331
0.000444842862
0.000444843395
0.00044484393
0.000444844465
0.000444844998
0.000444845529
0.000444846055
0.000444846577
0.000444847092
0.000444847602
0.000444848104
0.000444848598
0.000444849082
0.000444849559
0.000444850025
0.000444850481
0.000444850928
0.000444851365
0.000444851789
0.000444852205
0.000444852609
0.000444853001
0.000444853383
0.000444853754
0.000444854114
0.000444854462
0.0004448548
0.000444855126
0.000444855441
0.000444855745
0.000444856039
0.00044485632
0.000444856592
0.000444856854
0.000444857094
0.000444863282
0.000444854023
0.000444856994
0.000444853912
0.000444851284
0.000444849548
0.00044484898
0.000444849721
0.000444851779
0.000444855017
0.000444859201
0.000444864062
0.000444869346
0.000444874777
0.000444880011
0.000444884616
0.000444888147
0.000444890247
0.000444890777
0.000444889877
0.000444887936
0.000444885507
0.000444883193
0.00044488152
0.00044488087
0.000444881452
0.000444883296
0.000444886297
0.000444890248
0.000444894881
0.000444899878
0.000444904892
0.00044490954
0.000444913426
0.000444916179
0.000444917519
0.000444916863
0.000444915677
0.000444912871
0.000444909417
0.000444905916
0.000444902923
0.000444900836
0.000444899813
0.000444899766
0.000444900426
0.000444901444
0.000444902506
0.000444903404
0.000444904068
0.000444904533
0.000444904893
0.000444905252
0.000444905684
0.000444906235
0.000444906923
0.000444907757
0.000444908744
0.000444909896
0.000444911231
0.000444912764
0.000444914507
0.00044491647
0.000444918657
0.000444921069
0.0004449237
0.000444926545
0.000444929594
0.000444932834
0.000444936247
0.000444939816
0.000444943519
0.000444947331
0.000444951231
0.000444955188
0.000444959175
0.000444963164
0.000444967125
0.000444971025
0.000444974834
0.000444978518
0.00044498204
0.000444984828
0.000444981808
0.000444978325
0.000444974377
0.000444969968
0.000444965105
0.000444959806
0.000444954092
0.000444947993
0.000444941545
0.000444934796
0.000444927797
0.000444920604
0.000444913284
0.000444905902
0.000444898527
0.00044489123
0.000444884078
0.000444877135
0.000444870462
0.000444864113
0.000444858131
0.000444852555
0.000444847415
0.000444842727
0.000444838505
0.00044483475
0.000444831458
0.000444828616
0.000444826211
0.000444824218
0.000444822613
0.000444821371
0.000444820461
0.000444819853
0.00044481952
0.000444819431
0.000444819557
0.000444819875
0.000444820356
0.000444820978
0.000444821718
0.000444822558
0.000444823479
0.000444824465
0.000444825502
0.000444826577
0.000444827677
0.000444828796
0.000444829923
0.000444831051
0.000444832176
0.00044483329
0.000444834388
0.000444835458
0.000444835752
0.000444835704
0.000444835738
0.000444835844
0.000444836016
0.000444836247
0.000444836532
0.000444836863
0.000444837236
0.000444837646
0.000444838087
0.000444838554
0.000444839045
0.000444839554
0.000444840078
0.000444840615
0.000444841161
0.000444841714
0.000444842272
0.000444842832
0.000444843392
0.000444843952
0.000444844509
0.000444845062
0.00044484561
0.000444846153
0.000444846688
0.000444847217
0.000444847737
0.000444848249
0.000444848751
0.000444849244
0.000444849727
0.000444850199
0.000444850662
0.000444851114
0.000444851554
0.000444851984
0.000444852402
0.000444852808
0.000444853204
0.000444853589
0.000444853961
0.000444854322
0.000444854673
0.000444855011
0.000444855338
0.000444855655
0.00044485596
0.000444856253
0.000444856536
0.000444856811
0.000444857061
0.00044486327
0.000444853886
0.000444856422
0.000444852795
0.000444849599
0.000444847343
0.000444846349
0.000444846796
0.000444848714
0.000444851974
0.00044485633
0.000444861496
0.000444867196
0.00044487313
0.000444878915
0.000444884062
0.000444888052
0.000444890462
0.000444891101
0.000444890097
0.000444887862
0.000444885008
0.000444882206
0.000444880061
0.000444879021
0.000444879341
0.000444881081
0.000444884144
0.000444888316
0.00044489331
0.000444898782
0.000444904343
0.000444909567
0.000444914001
0.000444917213
0.000444918269
0.000444916892
0.000444916444
0.000444913861
0.00044490998
0.000444905978
0.000444902486
0.000444899969
0.000444898628
0.000444898385
0.000444898948
0.000444899928
0.000444900967
0.000444901824
0.00044490241
0.000444902762
0.000444902984
0.000444903192
0.000444903474
0.000444903883
0.000444904441
0.00044490516
0.000444906049
0.000444907124
0.000444908403
0.000444909907
0.00044491165
0.000444913644
0.000444915895
0.000444918405
0.000444921168
0.000444924178
0.000444927425
0.000444930893
0.000444934565
0.000444938422
0.000444942439
0.000444946591
0.000444950853
0.000444955196
0.000444959591
0.000444964008
0.000444968415
0.000444972779
0.000444977067
0.000444981243
0.000444985268
0.000444988947
0.000444985929
0.000444982184
0.000444977925
0.000444973154
0.000444967879
0.000444962117
0.000444955889
0.000444949229
0.000444942179
0.00044493479
0.000444927121
0.000444919238
0.000444911217
0.000444903136
0.000444895075
0.000444887118
0.000444879343
0.000444871826
0.000444864639
0.00044485784
0.000444851483
0.000444845607
0.000444840246
0.000444835415
0.000444831126
0.000444827376
0.000444824156
0.000444821446
0.000444819226
0.000444817464
0.000444816129
0.000444815187
0.000444814601
0.000444814334
0.000444814353
0.000444814621
0.000444815104
0.000444815775
0.000444816603
0.00044481756
0.000444818624
0.000444819774
0.000444820989
0.000444822252
0.00044482355
0.000444824868
0.000444826196
0.000444827525
0.000444828846
0.000444830152
0.000444831437
0.000444832697
0.000444833931
0.000444834606
0.000444834524
0.000444834524
0.000444834606
0.00044483476
0.000444834977
0.000444835252
0.00044483558
0.000444835952
0.000444836365
0.000444836813
0.00044483729
0.000444837792
0.000444838316
0.000444838858
0.000444839412
0.000444839979
0.000444840552
0.000444841131
0.000444841715
0.000444842299
0.000444842882
0.000444843465
0.000444844044
0.000444844618
0.000444845186
0.000444845749
0.000444846304
0.000444846852
0.00044484739
0.000444847919
0.000444848438
0.000444848947
0.000444849446
0.000444849933
0.00044485041
0.000444850876
0.00044485133
0.000444851773
0.000444852204
0.000444852623
0.000444853032
0.000444853428
0.000444853813
0.000444854186
0.000444854549
0.000444854899
0.000444855237
0.000444855566
0.000444855882
0.000444856187
0.000444856481
0.000444856767
0.000444857027
0.00044486325
0.000444853748
0.000444855846
0.000444851669
0.000444847902
0.00044484512
0.000444843697
0.000444843851
0.000444845636
0.000444848929
0.000444853473
0.00044485896
0.000444865093
0.00044487154
0.000444877874
0.00044488355
0.000444887975
0.00044489066
0.00044489138
0.000444890249
0.000444887709
0.000444884427
0.000444881148
0.000444878548
0.000444877142
0.000444877229
0.000444878895
0.00044488205
0.000444886473
0.000444891854
0.000444897821
0.000444903946
0.000444909752
0.000444914731
0.000444918391
0.000444918393
0.000444916584
0.000444916425
0.000444915081
0.000444910738
0.000444906197
0.000444902175
0.000444899202
0.000444897522
0.000444897062
0.00044489751
0.000444898435
0.000444899434
0.00044490023
0.000444900718
0.000444900932
0.000444900987
0.000444901013
0.000444901112
0.000444901346
0.000444901743
0.000444902316
0.00044490308
0.000444904053
0.000444905258
0.000444906719
0.000444908453
0.000444910475
0.000444912793
0.000444915408
0.000444918318
0.000444921514
0.000444924986
0.000444928718
0.00044493269
0.00044493688
0.000444941263
0.000444945811
0.000444950496
0.000444955285
0.000444960149
0.000444965055
0.000444969969
0.000444974856
0.000444979683
0.000444984411
0.000444989
0.000444993408
0.000444990974
0.000444986967
0.00044498239
0.000444977242
0.000444971527
0.000444965262
0.00044495847
0.000444951185
0.000444943453
0.000444935333
0.000444926892
0.000444918207
0.000444909369
0.000444900467
0.000444891599
0.000444882863
0.000444874353
0.000444866159
0.000444858363
0.000444851036
0.000444844236
0.00044483801
0.00044483239
0.000444827394
0.000444823028
0.000444819285
0.000444816149
0.000444813592
0.000444811586
0.000444810089
0.000444809061
0.000444808459
0.000444808238
0.000444808353
0.000444808764
0.000444809428
0.000444810306
0.000444811366
0.000444812572
0.000444813896
0.00044481531
0.000444816795
0.000444818327
0.000444819888
0.000444821465
0.000444823044
0.000444824613
0.000444826166
0.000444827693
0.000444829187
0.000444830648
0.000444832066
0.000444833041
0.000444833098
0.000444833074
0.000444833138
0.000444833283
0.0004448335
0.000444833779
0.000444834114
0.000444834499
0.000444834925
0.00044483539
0.000444835887
0.00044483641
0.000444836956
0.000444837523
0.000444838104
0.000444838696
0.000444839298
0.000444839907
0.000444840518
0.000444841133
0.000444841747
0.000444842359
0.000444842968
0.000444843573
0.000444844171
0.000444844763
0.000444845348
0.000444845923
0.000444846491
0.000444847049
0.000444847597
0.000444848133
0.00044484866
0.000444849176
0.00044484968
0.000444850173
0.000444850654
0.000444851123
0.000444851581
0.000444852026
0.000444852459
0.000444852882
0.000444853291
0.000444853689
0.000444854074
0.000444854449
0.000444854811
0.000444855162
0.000444855501
0.000444855829
0.000444856145
0.000444856451
0.000444856748
0.000444857018
0.000444863261
0.000444853608
0.000444855263
0.000444850533
0.000444846187
0.000444842871
0.000444841011
0.000444840865
0.000444842512
0.000444845835
0.000444850568
0.000444856385
0.000444862962
0.000444869938
0.000444876845
0.000444883075
0.000444887965
0.000444890959
0.000444891784
0.000444890542
0.000444887702
0.000444883988
0.00044488022
0.000444877151
0.000444875362
0.000444875202
0.000444876786
0.000444880033
0.000444884715
0.000444890502
0.000444896991
0.000444903713
0.000444910142
0.00044491571
0.000444919857
0.000444918507
0.000444916372
0.000444916073
0.000444916594
0.000444911805
0.000444906736
0.000444902179
0.000444898735
0.000444896691
0.000444895988
0.000444896291
0.000444897127
0.00044489805
0.000444898749
0.000444899098
0.000444899131
0.000444898975
0.000444898774
0.000444898645
0.00044489866
0.000444898853
0.000444899242
0.000444899845
0.000444900684
0.000444901787
0.000444903182
0.000444904891
0.000444906931
0.000444909311
0.000444912035
0.000444915099
0.000444918495
0.000444922209
0.000444926224
0.000444930517
0.000444935064
0.000444939835
0.000444944801
0.000444949932
0.000444955193
0.000444960552
0.000444965976
0.00044497143
0.000444976877
0.000444982284
0.000444987608
0.000444992811
0.000444997845
0.000444996601
0.000444992345
0.000444987453
0.000444981923
0.000444975754
0.00044496896
0.000444961562
0.000444953598
0.000444945117
0.000444936185
0.000444926878
0.000444917289
0.00044490752
0.000444897681
0.000444887887
0.000444878257
0.000444868903
0.000444859932
0.000444851442
0.000444843515
0.000444836219
0.000444829605
0.000444823709
0.000444818545
0.000444814115
0.000444810406
0.000444807392
0.000444805037
0.000444803298
0.000444802125
0.000444801465
0.000444801265
0.000444801471
0.000444802028
0.000444802888
0.000444804001
0.000444805323
0.000444806816
0.000444808442
0.000444810168
0.000444811966
0.000444813812
0.000444815684
0.000444817563
0.000444819437
0.00044482129
0.000444823112
0.000444824897
0.000444826636
0.000444828324
0.00044482996
0.000444831293
0.000444831563
0.000444831517
0.000444831571
0.00044483171
0.000444831929
0.000444832215
0.000444832562
0.00044483296
0.000444833406
0.000444833891
0.000444834411
0.000444834959
0.000444835533
0.000444836126
0.000444836736
0.000444837358
0.00044483799
0.00044483863
0.000444839273
0.000444839918
0.000444840564
0.000444841208
0.000444841849
0.000444842485
0.000444843116
0.000444843739
0.000444844355
0.000444844962
0.000444845559
0.000444846148
0.000444846725
0.000444847292
0.000444847847
0.000444848391
0.000444848923
0.000444849443
0.000444849951
0.000444850447
0.00044485093
0.000444851402
0.000444851861
0.000444852307
0.000444852742
0.000444853164
0.000444853574
0.000444853971
0.000444854358
0.000444854732
0.000444855093
0.000444855445
0.000444855784
0.000444856111
0.000444856428
0.000444856736
0.000444857015
0.000444863272
0.000444853466
0.000444854673
0.000444849381
0.000444844448
0.000444840591
0.000444838286
0.000444837833
0.000444839341
0.000444842699
0.00044484763
0.000444853787
0.000444860824
0.000444868345
0.000444875837
0.000444882629
0.000444887985
0.000444891283
0.000444892206
0.000444890847
0.000444887704
0.000444883559
0.000444879306
0.000444875774
0.00044487361
0.000444873213
0.000444874726
0.00044487808
0.000444883038
0.000444889252
0.000444896285
0.000444903628
0.000444910702
0.000444916879
0.00044492154
0.000444918693
0.000444916217
0.000444915766
0.000444917334
0.00044491317
0.000444907553
0.00044490244
0.000444898503
0.000444896075
0.000444895105
0.000444895237
0.00044489596
0.000444896779
0.000444897348
0.000444897522
0.000444897335
0.000444896923
0.000444896448
0.000444896041
0.000444895787
0.000444895726
0.000444895885
0.000444896283
0.00044489695
0.000444897918
0.000444899221
0.000444900885
0.00044490293
0.000444905368
0.000444908203
0.000444911431
0.000444915042
0.000444919024
0.000444923352
0.000444928004
0.000444932951
0.000444938159
0.000444943596
0.000444949228
0.000444955017
0.000444960928
0.000444966928
0.000444972978
0.000444979043
0.000444985087
0.000444991069
0.000444996948
0.000445002677
0.000445003159
0.000444998664
0.000444993461
0.000444987541
0.000444980896
0.000444973536
0.00044496548
0.000444956764
0.000444947443
0.000444937589
0.000444927291
0.000444916656
0.000444905807
0.000444894874
0.000444883998
0.000444873321
0.000444862979
0.0004448531
0.000444843803
0.000444835183
0.00044482732
0.000444820271
0.000444814072
0.000444808734
0.000444804255
0.00044480061
0.000444797761
0.000444795659
0.000444794248
0.000444793465
0.000444793241
0.000444793513
0.000444794212
0.000444795275
0.000444796645
0.000444798264
0.000444800082
0.000444802055
0.000444804142
0.000444806307
0.000444808521
0.000444810757
0.000444812994
0.000444815212
0.000444817399
0.000444819541
0.000444821628
0.000444823654
0.000444825614
0.000444827503
0.000444829257
0.000444829773
0.000444829714
0.000444829763
0.000444829908
0.000444830137
0.000444830442
0.000444830812
0.000444831238
0.000444831712
0.00044483223
0.000444832783
0.000444833367
0.000444833977
0.000444834607
0.000444835253
0.000444835914
0.000444836585
0.000444837261
0.000444837943
0.000444838626
0.000444839309
0.00044483999
0.000444840668
0.000444841339
0.000444842006
0.000444842664
0.000444843314
0.000444843954
0.000444844585
0.000444845205
0.000444845815
0.000444846413
0.000444846999
0.000444847573
0.000444848135
0.000444848685
0.000444849221
0.000444849745
0.000444850257
0.000444850755
0.000444851241
0.000444851714
0.000444852174
0.000444852622
0.000444853057
0.00044485348
0.000444853889
0.000444854288
0.000444854673
0.000444855047
0.000444855409
0.000444855759
0.000444856097
0.000444856425
0.000444856744
0.000444857033
0.000444863308
0.000444853321
0.000444854072
0.000444848211
0.000444842683
0.000444838273
0.000444835514
0.000444834748
0.000444836113
0.000444839506
0.000444844641
0.00044485115
0.000444858661
0.000444866744
0.000444874838
0.000444882208
0.000444888045
0.000444891658
0.000444892686
0.000444891214
0.000444887766
0.000444883185
0.000444878439
0.000444874437
0.000444871893
0.000444871258
0.000444872707
0.00044487618
0.000444881435
0.000444888104
0.000444895717
0.00044490372
0.00044491148
0.000444918306
0.000444923284
0.000444919004
0.000444916164
0.000444915539
0.000444917147
0.000444914879
0.000444908717
0.000444903041
0.000444898597
0.000444895763
0.0004448945
0.000444894434
0.00044489501
0.000444895689
0.000444896087
0.00044489604
0.000444895581
0.000444894857
0.000444894049
0.000444893305
0.000444892721