/*--------------------------------*- C++ -*----------------------------------*\
| =========                 |                                                 |
| \\      /  F ield         | OpenFOAM: The Open Source CFD Toolbox           |
|  \\    /   O peration     | Version:  v2012                                 |
|   \\  /    A nd           | Website:  www.openfoam.com                      |
|    \\/     M anipulation  |                                                 |
\*---------------------------------------------------------------------------*/
FoamFile
{
    version     2.0;
    format      ascii;
    class       volVectorField;
    location    "2.44";
    object      U;
}
// * * * * * * * * * * * * * * * * * * * * * * * * * * * * * * * * * * * * * //

dimensions      [0 1 -1 0 0 0 0];


internalField   nonuniform List<vector> 
28416
(
(0.0999989263 1.22793185e-05 0)
(0.0999868064 4.13159786e-05 0)
(0.099959458 7.47007109e-05 0)
(0.0999159214 0.000109461749 0)
(0.099858021 0.000141572836 0)
(0.0997884222 0.000167576466 0)
(0.0997100617 0.000184955301 0)
(0.0996263399 0.000192296293 0)
(0.099540972 0.000189516866 0)
(0.0994575023 0.000177652901 0)
(0.099379012 0.000158226806 0)
(0.0993081534 0.000132847497 0)
(0.0992472156 0.000103461806 0)
(0.0991979244 7.29195969e-05 0)
(0.0991609336 4.51618579e-05 0)
(0.0991352038 2.46234942e-05 0)
(0.0991176339 1.51850857e-05 0)
(0.0991036461 1.92233394e-05 0)
(0.0990882081 3.66887332e-05 0)
(0.0990662069 6.53823308e-05 0)
(0.099033756 0.000101909193 0)
(0.0989898209 0.00014190981 0)
(0.0989355215 0.000180485851 0)
(0.0988727607 0.000213243921 0)
(0.0988040328 0.00023696588 0)
(0.0987324298 0.000249699409 0)
(0.0986612029 0.000250708375 0)
(0.0985933704 0.00024042076 0)
(0.0985315994 0.000220321552 0)
(0.0984781516 0.000192820459 0)
(0.0984347563 0.00016114243 0)
(0.098402422 0.000129206624 0)
(0.0983813046 0.000101392321 0)
(0.0983703415 8.2034276e-05 0)
(0.098367077 7.49042822e-05 0)
(0.0983681543 8.24991749e-05 0)
(0.0983698528 0.000105277218 0)
(0.0983686193 0.000141386078 0)
(0.0983616723 0.000186869051 0)
(0.0983474645 0.000236444602 0)
(0.0983258859 0.000284666919 0)
(0.0982981117 0.000327122885 0)
(0.0982661462 0.00036129728 0)
(0.0982322123 0.000386848598 0)
(0.0981981836 0.000405249647 0)
(0.0981652186 0.000418976524 0)
(0.0981336734 0.000430577139 0)
(0.0981032561 0.000441951001 0)
(0.0980733155 0.000454035246 0)
(0.0980431328 0.000466896067 0)
(0.0980121198 0.000480068858 0)
(0.097979893 0.000492938279 0)
(0.0979462465 0.000505001019 0)
(0.0979110795 0.000515957757 0)
(0.0978743293 0.000525672647 0)
(0.0978359355 0.000534079456 0)
(0.0977958366 0.000541102267 0)
(0.0977539865 0.00054662081 0)
(0.0977103729 0.000550475397 0)
(0.0976650301 0.000552490111 0)
(0.0976180437 0.000552494885 0)
(0.0975695498 0.000550337742 0)
(0.0975197322 0.000545887898 0)
(0.0974688203 0.000539034456 0)
(0.0974170868 0.000529684753 0)
(0.0973648455 0.000517764049 0)
(0.0973124481 0.00050321643 0)
(0.0972602809 0.000486006326 0)
(0.0972087597 0.000466120251 0)
(0.097158326 0.000443568665 0)
(0.0971094431 0.000418387853 0)
(0.0970625944 0.000390641474 0)
(0.0970182815 0.000360420987 0)
(0.0969770247 0.000327844664 0)
(0.0969393636 0.000293053488 0)
(0.0969058568 0.000256205012 0)
(0.0968770823 0.000217461798 0)
(0.0968536181 0.000176974021 0)
(0.0968359993 0.000134882141 0)
(0.096824674 9.13383873e-05 0)
(0.0968198877 4.65454874e-05 0)
(0.096821628 9.69121918e-07 0)
(0.0968311315 -4.46279548e-05 0)
(0.0968495999 -9.06837541e-05 0)
(0.0968768014 -0.000137214111 0)
(0.0969127014 -0.000183928739 0)
(0.0969574617 -0.000230533007 0)
(0.0970111277 -0.000276726711 0)
(0.0970736319 -0.000322181055 0)
(0.0971448346 -0.000366552251 0)
(0.097224505 -0.000409486623 0)
(0.0973123113 -0.000450619238 0)
(0.0974078272 -0.000489577781 0)
(0.09751054 -0.000525991746 0)
(0.0976198574 -0.000559504779 0)
(0.0977351162 -0.000589788567 0)
(0.0978555904 -0.000616556108 0)
(0.0979805003 -0.00063957229 0)
(0.0981090215 -0.000658660699 0)
(0.0982402962 -0.000673706832 0)
(0.0983734458 -0.000684658548 0)
(0.0985075854 -0.000691524682 0)
(0.0986418387 -0.000694372463 0)
(0.0987753527 -0.000693323996 0)
(0.0989073115 -0.000688551793 0)
(0.099036948 -0.000680273283 0)
(0.0991635543 -0.000668744357 0)
(0.0992864891 -0.000654252132 0)
(0.099405184 -0.000637107237 0)
(0.0995191466 -0.000617635946 0)
(0.0996279623 -0.000596172517 0)
(0.0997312935 -0.00057305201 0)
(0.0998288778 -0.000548603788 0)
(0.0999205234 -0.000523145802 0)
(0.100006103 -0.000496979283 0)
(0.100085544 -0.000470383696 0)
(0.100158811 -0.000443609827 0)
(0.100225914 -0.000416865748 0)
(0.100286958 -0.000390317524 0)
(0.100342151 -0.000364118061 0)
(0.100391733 -0.0003384176 0)
(0.100435938 -0.000313350404 0)
(0.100475007 -0.000289028425 0)
(0.100509179 -0.000265536907 0)
(0.100538704 -0.000242922188 0)
(0.100563862 -0.000221213338 0)
(0.100584944 -0.000200432419 0)
(0.100602241 -0.000180594244 0)
(0.100616039 -0.000161705692 0)
(0.100626616 -0.000143765622 0)
(0.100634241 -0.000126763464 0)
(0.100639169 -0.000110674702 0)
(0.100641644 -9.54628347e-05 0)
(0.100641903 -8.10813252e-05 0)
(0.100640188 -6.74768565e-05 0)
(0.100636752 -5.45967815e-05 0)
(0.100631867 -4.24027761e-05 0)
(0.10062584 -3.08967739e-05 0)
(0.100618987 -2.01643289e-05 0)
(0.100611612 -1.0469896e-05 0)
(0.100603735 -2.07644174e-06 0)
(0.100594973 5.05490204e-06 0)
(0.100585034 1.11708896e-05 0)
(0.100573959 1.65139101e-05 0)
(0.10056196 2.12472678e-05 0)
(0.100549263 2.54564632e-05 0)
(0.100536023 2.91948574e-05 0)
(0.100522335 3.25152775e-05 0)
(0.100508288 3.54681527e-05 0)
(0.100493977 3.80944835e-05 0)
(0.100479487 4.04263851e-05 0)
(0.100464893 4.24888339e-05 0)
(0.100450262 4.4300216e-05 0)
(0.100435653 4.58738531e-05 0)
(0.100421113 4.72204575e-05 0)
(0.100406679 4.83501029e-05 0)
(0.100392384 4.9273337e-05 0)
(0.100378253 5.00017128e-05 0)
(0.100364307 5.05478946e-05 0)
(0.100350566 5.09254253e-05 0)
(0.100337046 5.11483107e-05 0)
(0.100323761 5.12305659e-05 0)
(0.100310726 5.11857947e-05 0)
(0.100297953 5.10268242e-05 0)
(0.100285454 5.07654161e-05 0)
(0.100273239 5.04120837e-05 0)
(0.100261319 4.9976022e-05 0)
(0.100249702 4.94651386e-05 0)
(0.100238395 4.88861653e-05 0)
(0.100227404 4.82448308e-05 0)
(0.100216733 4.75460719e-05 0)
(0.100206386 4.67942553e-05 0)
(0.100196365 4.59933842e-05 0)
(0.100186672 4.51472668e-05 0)
(0.100177308 4.42596353e-05 0)
(0.100168272 4.33342103e-05 0)
(0.100159564 4.23747119e-05 0)
(0.100151184 4.13848291e-05 0)
(0.100143132 4.03681589e-05 0)
(0.100135408 3.93281267e-05 0)
(0.100128011 3.82679059e-05 0)
(0.100120943 3.71903377e-05 0)
(0.100114203 3.60978962e-05 0)
(0.100107792 3.49924571e-05 0)
(0.100101719 3.38758717e-05 0)
(0.100095961 3.27464545e-05 0)
(0.100090615 3.16135053e-05 0)
(0.100085381 3.04252157e-05 0)
(0.100081415 2.93947092e-05 0)
(0.100075091 2.74560581e-05 0)
(0.0999996874 2.24495516e-05 0)
(0.0999916462 7.8248543e-05 0)
(0.0999687431 0.000142063634 0)
(0.09992783 0.000207210941 0)
(0.0998702988 0.000266618606 0)
(0.0997991381 0.000314552779 0)
(0.0997176286 0.000346945951 0)
(0.099629558 0.000361644693 0)
(0.0995391685 0.00035867553 0)
(0.0994506112 0.000339786166 0)
(0.0993675542 0.000307381234 0)
(0.0992931683 0.000263916562 0)
(0.0992301491 0.00021240662 0)
(0.0991804379 0.000157498452 0)
(0.0991446311 0.000105939275 0)
(0.0991214828 6.57244806e-05 0)
(0.0991078767 4.41626306e-05 0)
(0.0990990469 4.58434583e-05 0)
(0.0990895615 7.12134203e-05 0)
(0.0990742911 0.00011627755 0)
(0.0990487462 0.000174261799 0)
(0.0990100692 0.000237122598 0)
(0.0989578526 0.000296660894 0)
(0.0988937771 0.000345921484 0)
(0.0988208792 0.000380096365 0)
(0.0987430264 0.000396582146 0)
(0.0986644177 0.000394690159 0)
(0.0985891174 0.000375337232 0)
(0.0985207773 0.000340780298 0)
(0.0984624957 0.00029446188 0)
(0.0984166723 0.000240989858 0)
(0.0983847925 0.000186127419 0)
(0.0983671549 0.000136566794 0)
(0.0983625827 9.92275971e-05 0)
(0.0983683173 8.03383582e-05 0)
(0.0983802126 8.41466308e-05 0)
(0.0983933169 0.000111611613 0)
(0.0984026786 0.000159827209 0)
(0.0984041813 0.000222442879 0)
(0.0983953376 0.00029100696 0)
(0.0983757137 0.000356881955 0)
(0.0983468274 0.000413191584 0)
(0.098311557 0.000456199748 0)
(0.0982732573 0.000485707239 0)
(0.0982348702 0.00050441019 0)
(0.0981982999 0.000516538211 0)
(0.0981642053 0.00052632181 0)
(0.0981321964 0.000536830875 0)
(0.0981012763 0.000549496547 0)
(0.098070317 0.000564304431 0)
(0.0980383996 0.000580390077 0)
(0.0980049478 0.000596684661 0)
(0.0979696893 0.000612349713 0)
(0.0979325313 0.000626917034 0)
(0.0978934415 0.000640204952 0)
(0.0978523793 0.00065214871 0)
(0.0978092859 0.000662660817 0)
(0.097764108 0.000671570993 0)
(0.0977168278 0.000678635105 0)
(0.097667484 0.000683575254 0)
(0.0976161778 0.000686117433 0)
(0.0975630704 0.000686011956 0)
(0.0975083775 0.000683038301 0)
(0.0974523639 0.000677002781 0)
(0.0973953403 0.000667736153 0)
(0.0973376609 0.000655093882 0)
(0.0972797194 0.000638958461 0)
(0.0972219465 0.000619242136 0)
(0.0971648048 0.000595888843 0)
(0.0971087851 0.000568874981 0)
(0.0970544021 0.000538209215 0)
(0.0970021909 0.000503931568 0)
(0.0969527032 0.000466111876 0)
(0.0969065043 0.000424847763 0)
(0.0968641681 0.000380261541 0)
(0.0968262712 0.000332496521 0)
(0.0967933815 0.000281711871 0)
(0.0967660533 0.000228076063 0)
(0.0967448263 0.000171773083 0)
(0.0967302298 0.000113035338 0)
(0.0967229242 5.21900372e-05 0)
(0.0967236699 -1.03582026e-05 0)
(0.0967327434 -7.394275e-05 0)
(0.0967503964 -0.000138532533 0)
(0.0967771441 -0.000203891252 0)
(0.0968132412 -0.000269602167 0)
(0.0968588301 -0.000335235659 0)
(0.0969139893 -0.00040033938 0)
(0.0969787013 -0.000464415725 0)
(0.0970528489 -0.000526936529 0)
(0.0971362104 -0.000587356775 0)
(0.0972284547 -0.000645123235 0)
(0.0973291419 -0.000699686455 0)
(0.0974377283 -0.000750514853 0)
(0.0975535724 -0.000797108641 0)
(0.0976759424 -0.00083901328 0)
(0.0978040259 -0.000875832152 0)
(0.0979369415 -0.000907237749 0)
(0.0980737519 -0.000932980791 0)
(0.0982134794 -0.000952896947 0)
(0.0983551228 -0.000966910806 0)
(0.0984976761 -0.000975036859 0)
(0.0986401468 -0.000977377512 0)
(0.0987815734 -0.000974118328 0)
(0.0989210424 -0.000965520845 0)
(0.0990577017 -0.000951913441 0)
(0.0991907726 -0.000933680764 0)
(0.0993195586 -0.000911252224 0)
(0.0994434514 -0.000885090079 0)
(0.0995619345 -0.000855677556 0)
(0.0996745835 -0.00082350743 0)
(0.0997810651 -0.000789071422 0)
(0.0998811331 -0.000752850602 0)
(0.099974623 -0.000715306881 0)
(0.100061446 -0.00067687524 0)
(0.10014158 -0.000637956514 0)
(0.100215066 -0.00059890889 0)
(0.100282002 -0.00056003283 0)
(0.100342549 -0.0005215729 0)
(0.100396926 -0.000483750942 0)
(0.100445387 -0.000446777778 0)
(0.100488206 -0.000410837642 0)
(0.100525672 -0.000376081484 0)
(0.100558097 -0.000342624142 0)
(0.100585792 -0.000310538177 0)
(0.100609061 -0.000279869707 0)
(0.100628209 -0.000250647972 0)
(0.100643543 -0.000222887374 0)
(0.100655365 -0.000196588491 0)
(0.100663974 -0.00017173965 0)
(0.100669664 -0.000148319617 0)
(0.10067272 -0.000126301113 0)
(0.10067341 -0.000105646248 0)
(0.100671993 -8.63068456e-05 0)
(0.100668716 -6.82294797e-05 0)
(0.100663816 -5.13656786e-05 0)
(0.100657502 -3.56917615e-05 0)
(0.100649937 -2.12309209e-05 0)
(0.100641133 -7.95268235e-06 0)
(0.100631191 4.1843242e-06 0)
(0.100620478 1.49636151e-05 0)
(0.100609199 2.42914044e-05 0)
(0.100597299 3.23386635e-05 0)
(0.100584722 3.9339682e-05 0)
(0.100571499 4.54814618e-05 0)
(0.100557731 5.08763814e-05 0)
(0.100543535 5.5594524e-05 0)
(0.100529004 5.97012819e-05 0)
(0.100514214 6.32605517e-05 0)
(0.100499237 6.6327086e-05 0)
(0.100484144 6.894758e-05 0)
(0.100468994 7.11636657e-05 0)
(0.100453842 7.3011964e-05 0)
(0.100438738 7.45240837e-05 0)
(0.100423726 7.5727685e-05 0)
(0.100408842 7.66474463e-05 0)
(0.10039412 7.73056241e-05 0)
(0.100379587 7.77225711e-05 0)
(0.100365267 7.79172771e-05 0)
(0.10035118 7.79077679e-05 0)
(0.100337343 7.77112848e-05 0)
(0.100323771 7.73443024e-05 0)
(0.100310476 7.6822475e-05 0)
(0.100297469 7.61605586e-05 0)
(0.10028476 7.53723214e-05 0)
(0.100272357 7.44704673e-05 0)
(0.100260266 7.34665934e-05 0)
(0.100248495 7.23711916e-05 0)
(0.100237047 7.11936892e-05 0)
(0.100225927 6.99425237e-05 0)
(0.100215139 6.86252397e-05 0)
(0.100204684 6.72485989e-05 0)
(0.100194564 6.5818692e-05 0)
(0.100184781 6.43410417e-05 0)
(0.100175333 6.28206917e-05 0)
(0.100166222 6.12622751e-05 0)
(0.100157448 5.96700605e-05 0)
(0.100149009 5.80479752e-05 0)
(0.100140904 5.63996102e-05 0)
(0.100133134 5.47282052e-05 0)
(0.100125698 5.30366181e-05 0)
(0.100118595 5.13272657e-05 0)
(0.100111826 4.96020897e-05 0)
(0.100105389 4.78622343e-05 0)
(0.100099291 4.61087712e-05 0)
(0.100093508 4.43379184e-05 0)
(0.100088132 4.25616163e-05 0)
(0.100082841 4.07052533e-05 0)
(0.100078821 3.90886479e-05 0)
(0.100072199 3.6149276e-05 0)
(0.0999993009 2.43619968e-05 0)
(0.099989522 8.87855203e-05 0)
(0.099965089 0.00016366198 0)
(0.0999235041 0.000239945221 0)
(0.0998660354 0.000309503653 0)
(0.0997954146 0.000365911362 0)
(0.0997147261 0.000404458558 0)
(0.0996275652 0.000422581796 0)
(0.0995379794 0.000420229035 0)
(0.0994499549 0.000399297142 0)
(0.0993670258 0.000362395601 0)
(0.0992922442 0.000312179613 0)
(0.0992282403 0.000251985189 0)
(0.0991770395 0.000187124082 0)
(0.0991395653 0.000125458854 0)
(0.0991149807 7.64324225e-05 0)
(0.0991002937 4.87766145e-05 0)
(0.09909072 4.79678084e-05 0)
(0.0990803592 7.48408769e-05 0)
(0.0990634912 0.000125349824 0)
(0.0990361063 0.000191551103 0)
(0.0989963114 0.000263673866 0)
(0.0989440942 0.000332090438 0)
(0.0988809866 0.000388696821 0)
(0.0988096859 0.000427759314 0)
(0.0987336782 0.000446142015 0)
(0.0986568289 0.000443045064 0)
(0.0985829835 0.000419565184 0)
(0.0985156846 0.000378305071 0)
(0.0984579911 0.000323155124 0)
(0.0984123038 0.000259266358 0)
(0.0983801377 0.000193073454 0)
(0.0983618549 0.000132101048 0)
(0.0983564204 8.43031093e-05 0)
(0.0983612897 5.68937691e-05 0)
(0.0983725343 5.48330984e-05 0)
(0.0983853541 7.95573552e-05 0)
(0.0983949475 0.000128253694 0)
(0.0983973736 0.000194045642 0)
(0.0983901891 0.000267341375 0)
(0.0983728085 0.000338037076 0)
(0.0983464595 0.000397874702 0)
(0.0983136936 0.000442210286 0)
(0.0982775983 0.000470639086 0)
(0.0982409681 0.000486334419 0)
(0.098205692 0.00049443897 0)
(0.0981725142 0.000500176776 0)
(0.0981411744 0.00050737945 0)
(0.0981107935 0.000517848892 0)
(0.0980803134 0.000531569001 0)
(0.098048828 0.000547442437 0)
(0.0980157301 0.000564108751 0)
(0.0979806957 0.000580504826 0)
(0.0979435812 0.000596050774 0)
(0.0979043161 0.00061054524 0)
(0.0978628369 0.000623945161 0)
(0.0978190741 0.000636181026 0)
(0.0977729704 0.000647074793 0)
(0.0977245085 0.000656348722 0)
(0.09767373 0.000663676378 0)
(0.0976207428 0.000668731531 0)
(0.0975657189 0.000671214813 0)
(0.0975088891 0.000670859798 0)
(0.0974505382 0.000667429436 0)
(0.0973910005 0.000660712239 0)
(0.097330657 0.000650521946 0)
(0.0972699304 0.000636699961 0)
(0.0972092813 0.000619118562 0)
(0.097149202 0.000597683424 0)
(0.0970902115 0.000572335133 0)
(0.0970328502 0.000543049912 0)
(0.0969776765 0.000509839728 0)
(0.0969252636 0.000472751722 0)
(0.0968761967 0.000431866755 0)
(0.0968310714 0.000387297721 0)
(0.0967904903 0.000339187201 0)
(0.0967550608 0.000287707652 0)
(0.096725391 0.00023306549 0)
(0.0967020919 0.000175502184 0)
(0.0966857652 0.000115295261 0)
(0.0966768033 5.27420079e-05 0)
(0.0966755011 -1.19011768e-05 0)
(0.096682628 -7.84213554e-05 0)
(0.0966989213 -0.000146404149 0)
(0.0967246475 -0.000215497068 0)
(0.0967600398 -0.000285294374 0)
(0.0968053248 -0.000355316699 0)
(0.0968606308 -0.000425038418 0)
(0.096925974 -0.000493893708 0)
(0.0970012657 -0.000561282704 0)
(0.0970863061 -0.000626581555 0)
(0.0971807763 -0.000689152198 0)
(0.097284237 -0.000748354615 0)
(0.0973961304 -0.000803562448 0)
(0.0975157844 -0.000854180649 0)
(0.09764242 -0.000899663871 0)
(0.0977751617 -0.000939534216 0)
(0.0979130516 -0.000973396733 0)
(0.0980550663 -0.00100095143 0)
(0.098200136 -0.00102200128 0)
(0.0983471652 -0.00103645629 0)
(0.0984950548 -0.00104433371 0)
(0.0986427234 -0.00104575483 0)
(0.0987891275 -0.00104093876 0)
(0.0989332803 -0.00103019338 0)
(0.0990742676 -0.00101390412 0)
(0.0992112602 -0.000992520891 0)
(0.0993435243 -0.000966544002 0)
(0.0994704268 -0.000936509498 0)
(0.0995914392 -0.000902974722 0)
(0.0997061372 -0.000866504534 0)
(0.099814198 -0.000827658665 0)
(0.0999153955 -0.000786980468 0)
(0.100009594 -0.000744987184 0)
(0.100096739 -0.000702161754 0)
(0.10017685 -0.000658946143 0)
(0.100250012 -0.000615736212 0)
(0.100316369 -0.000572877951 0)
(0.100376119 -0.000530668389 0)
(0.100429514 -0.000489363373 0)
(0.100476837 -0.000449182147 0)
(0.100518398 -0.000410306263 0)
(0.100554516 -0.00037288039 0)
(0.100585523 -0.000337015866 0)
(0.100611749 -0.000302798698 0)
(0.100633525 -0.000270284584 0)
(0.10065118 -0.000239500812 0)
(0.100665036 -0.000210451914 0)
(0.10067541 -0.000183124321 0)
(0.100682607 -0.000157490429 0)
(0.100686914 -0.000133513868 0)
(0.100688604 -0.000111156444 0)
(0.100687944 -9.03764258e-05 0)
(0.100685192 -7.11297673e-05 0)
(0.100680587 -5.33721013e-05 0)
(0.100674349 -3.70561717e-05 0)
(0.100666668 -2.21144387e-05 0)
(0.100657858 -8.44042755e-06 0)
(0.10064831 3.97396759e-06 0)
(0.100638043 1.52902515e-05 0)
(0.10062692 2.55943058e-05 0)
(0.100615004 3.48339155e-05 0)
(0.100602379 4.30053295e-05 0)
(0.100589105 5.01743141e-05 0)
(0.100575251 5.64437503e-05 0)
(0.100560912 6.19154856e-05 0)
(0.100546186 6.6670071e-05 0)
(0.100531161 7.07762118e-05 0)
(0.100515914 7.4299154e-05 0)
(0.10050052 7.72976429e-05 0)
(0.100485049 7.98215993e-05 0)
(0.100469565 8.19135451e-05 0)
(0.100454124 8.36102805e-05 0)
(0.100438772 8.49441647e-05 0)
(0.10042355 8.59444651e-05 0)
(0.100408488 8.66384366e-05 0)
(0.100393613 8.70518645e-05 0)
(0.100378948 8.72092341e-05 0)
(0.100364511 8.71337413e-05 0)
(0.100350319 8.68472464e-05 0)
(0.100336387 8.63702186e-05 0)
(0.100322727 8.57216911e-05 0)
(0.100309352 8.49192286e-05 0)
(0.100296272 8.39789044e-05 0)
(0.100283497 8.29152981e-05 0)
(0.100271034 8.17415248e-05 0)
(0.100258891 8.04692957e-05 0)
(0.100247074 7.91090092e-05 0)
(0.100235587 7.76698703e-05 0)
(0.100224435 7.61600293e-05 0)
(0.10021362 7.45867321e-05 0)
(0.100203144 7.29564707e-05 0)
(0.100193007 7.12751231e-05 0)
(0.10018321 6.95480677e-05 0)
(0.100173752 6.77802693e-05 0)
(0.100164634 6.5976331e-05 0)
(0.100155853 6.41405158e-05 0)
(0.100147409 6.22767438e-05 0)
(0.1001393 6.03885724e-05 0)
(0.100131526 5.84791609e-05 0)
(0.100124086 5.65512259e-05 0)
(0.100116979 5.46069763e-05 0)
(0.100110205 5.2648086e-05 0)
(0.100103761 5.06753968e-05 0)
(0.100097655 4.8689781e-05 0)
(0.100091859 4.6687199e-05 0)
(0.100086469 4.46818839e-05 0)
(0.100081166 4.2593718e-05 0)
(0.100077133 4.07861468e-05 0)
(0.100070615 3.75361863e-05 0)
(0.0999995695 3.04018911e-05 0)
(0.0999910849 0.000112172676 0)
(0.0999680825 0.000208517591 0)
(0.0999273864 0.000307251433 0)
(0.0998698679 0.000397519876 0)
(0.0997981565 0.000470973802 0)
(0.0997154309 0.000521525905 0)
(0.0996254984 0.00054580044 0)
(0.0995327191 0.000543633062 0)
(0.099441478 0.00051740021 0)
(0.0993557509 0.000470456039 0)
(0.0992790167 0.000406249573 0)
(0.0992142301 0.000329078528 0)
(0.099163502 0.000245692738 0)
(0.0991274986 0.000166041803 0)
(0.0991049356 0.000102054446 0)
(0.0990925039 6.48858587e-05 0)
(0.0990853685 6.18029616e-05 0)
(0.0990780847 9.39249753e-05 0)
(0.0990650929 0.000156205136 0)
(0.0990414069 0.000238893034 0)
(0.099003946 0.000329704537 0)
(0.0989521074 0.000416248173 0)
(0.0988874237 0.000488044235 0)
(0.0988129805 0.000537695637 0)
(0.0987328273 0.0005611601 0)
(0.0986514285 0.00055738662 0)
(0.0985732173 0.000527709677 0)
(0.0985022826 0.000475322494 0)
(0.0984421498 0.000405009834 0)
(0.0983955709 0.000323151669 0)
(0.0983642649 0.000237800239 0)
(0.0983486105 0.00015847623 0)
(0.0983473602 9.53566665e-05 0)
(0.0983575294 5.77871639e-05 0)
(0.098374724 5.24183676e-05 0)
(0.098393793 8.13358519e-05 0)
(0.0984094426 0.000140832866 0)
(0.0984170643 0.000222020734 0)
(0.0984137241 0.000312669422 0)
(0.0983986976 0.000399961499 0)
(0.0983733751 0.000473450847 0)
(0.0983406594 0.000527284867 0)
(0.0983040571 0.000560980839 0)
(0.0982667407 0.000578584665 0)
(0.0982308633 0.000586640508 0)
(0.0981972937 0.000591806553 0)
(0.0981657702 0.000598986416 0)
(0.0981353279 0.000610511254 0)
(0.0981047864 0.000626395511 0)
(0.0980731187 0.000645263352 0)
(0.0980396205 0.00066538659 0)
(0.0980038998 0.000685402486 0)
(0.097965769 0.000704558697 0)
(0.0979251275 0.000722587524 0)
(0.0978818903 0.000739429279 0)
(0.0978359707 0.000754996759 0)
(0.0977872994 0.000769067951 0)
(0.097735854 0.000781294155 0)
(0.0976816788 0.000791262867 0)
(0.0976248924 0.000798559335 0)
(0.0975656857 0.000802800735 0)
(0.0975043147 0.000803644495 0)
(0.0974410949 0.000800784318 0)
(0.0973763957 0.000793945807 0)
(0.0973106361 0.000782886454 0)
(0.0972442802 0.000767399103 0)
(0.0971778322 0.000747316085 0)
(0.0971118317 0.000722511932 0)
(0.0970468483 0.000692904039 0)
(0.0969834764 0.000658451682 0)
(0.0969223307 0.000619154098 0)
(0.09686404 0.000575048207 0)
(0.096809243 0.000526206491 0)
(0.0967585828 0.000472735194 0)
(0.0967127031 0.000414773107 0)
(0.0966722441 0.000352490508 0)
(0.0966378371 0.000286087961 0)
(0.0966101013 0.00021579504 0)
(0.0965896364 0.000141865996 0)
(0.0965771072 6.45913006e-05 0)
(0.0965732162 -1.55642179e-05 0)
(0.0965784371 -9.8047411e-05 0)
(0.0965931687 -0.000182474614 0)
(0.0966178903 -0.000268380606 0)
(0.0966529814 -0.000355201943 0)
(0.0966987131 -0.000442323542 0)
(0.0967552627 -0.00052907948 0)
(0.0968227017 -0.000614747763 0)
(0.0969009819 -0.000698560044 0)
(0.0969899253 -0.000779717178 0)
(0.0970892151 -0.000857405367 0)
(0.0971983922 -0.000930814358 0)
(0.0973168548 -0.00099915772 0)
(0.0974438636 -0.00106169375 0)
(0.0975785503 -0.00111774602 0)
(0.097719931 -0.00116672304 0)
(0.0978669237 -0.00120813614 0)
(0.0980183685 -0.00124161439 0)
(0.0981730513 -0.00126691584 0)
(0.0983297291 -0.00128393409 0)
(0.0984871563 -0.00129269988 0)
(0.0986441111 -0.00129337756 0)
(0.0987994202 -0.001286257 0)
(0.0989519808 -0.00127174137 0)
(0.0991007794 -0.00125033185 0)
(0.099244907 -0.00122261009 0)
(0.0993835692 -0.00118921941 0)
(0.0995160932 -0.00115084562 0)
(0.0996419294 -0.0011081983 0)
(0.099760651 -0.00106199316 0)
(0.0998719487 -0.00101293609 0)
(0.0999756247 -0.000961709172 0)
(0.100071583 -0.000908958978 0)
(0.10015982 -0.000855287028 0)
(0.100240413 -0.000801242546 0)
(0.100313511 -0.000747317262 0)
(0.100379325 -0.000693942195 0)
(0.100438117 -0.000641488057 0)
(0.100490196 -0.000590270317 0)
(0.100535899 -0.000540554271 0)
(0.100575585 -0.000492557345 0)
(0.100609624 -0.000446451379 0)
(0.100638393 -0.000402366104 0)
(0.100662268 -0.000360392941 0)
(0.100681621 -0.000320587558 0)
(0.100696814 -0.000282974443 0)
(0.100708201 -0.00024755247 0)
(0.100716122 -0.000214299729 0)
(0.100720901 -0.000183177102 0)
(0.100722844 -0.000154129784 0)
(0.100722244 -0.000127086156 0)
(0.100719374 -0.000101963062 0)
(0.100714497 -7.86690545e-05 0)
(0.100707863 -5.71086368e-05 0)
(0.100699736 -3.71979603e-05 0)
(0.100690393 -1.88754964e-05 0)
(0.100679929 -2.09778129e-06 0)
(0.100668419 1.31399113e-05 0)
(0.100656053 2.67719087e-05 0)
(0.100642953 3.88980554e-05 0)
(0.100629223 4.96391984e-05 0)
(0.100614942 5.91004571e-05 0)
(0.100600177 6.73925547e-05 0)
(0.100585002 7.4631427e-05 0)
(0.100569492 8.09257841e-05 0)
(0.100553726 8.63686781e-05 0)
(0.100537779 9.1040542e-05 0)
(0.100521715 9.50148032e-05 0)
(0.100505589 9.83587299e-05 0)
(0.100489453 0.000101133088 0)
(0.100473352 0.000103392625 0)
(0.100457328 0.000105186043 0)
(0.100441424 0.000106555874 0)
(0.100425675 0.000107539228 0)
(0.100410116 0.000108169045 0)
(0.100394777 0.000108475154 0)
(0.100379681 0.000108485005 0)
(0.100364851 0.000108224231 0)
(0.100350302 0.00010771699 0)
(0.100336049 0.000106986091 0)
(0.100322103 0.000106052981 0)
(0.100308472 0.000104937703 0)
(0.100295165 0.00010365887 0)
(0.100282188 0.00010223364 0)
(0.100269544 0.000100677736 0)
(0.100257239 9.90054764e-05 0)
(0.100245276 9.72298308e-05 0)
(0.100233656 9.53624984e-05 0)
(0.100222382 9.34139938e-05 0)
(0.100211455 9.13937387e-05 0)
(0.100200876 8.93101558e-05 0)
(0.100190645 8.71707614e-05 0)
(0.100180762 8.49822558e-05 0)
(0.100171226 8.27506107e-05 0)
(0.100162037 8.04811487e-05 0)
(0.100153193 7.81786083e-05 0)
(0.100144694 7.58471951e-05 0)
(0.100136537 7.34906121e-05 0)
(0.100128721 7.1112071e-05 0)
(0.100121245 6.871429e-05 0)
(0.100114106 6.62994635e-05 0)
(0.100107305 6.38692801e-05 0)
(0.100100836 6.14246222e-05 0)
(0.100094706 5.89666904e-05 0)
(0.100088887 5.64911128e-05 0)
(0.100083472 5.40162055e-05 0)
(0.10007813 5.14458989e-05 0)
(0.100074066 4.92249783e-05 0)
(0.100067353 4.52489223e-05 0)
(0.0999995195 3.46956448e-05 0)
(0.0999908461 0.000130451105 0)
(0.0999675908 0.000244110729 0)
(0.0999265584 0.000360610078 0)
(0.0998686493 0.000467169751 0)
(0.0997965188 0.000554194397 0)
(0.0997133426 0.000614674636 0)
(0.0996228989 0.000644648295 0)
(0.0995295024 0.000643784102 0)
(0.0994374966 0.000614634193 0)
(0.0993508224 0.000560873201 0)
(0.0992729105 0.000486311655 0)
(0.0992066597 0.000395772016 0)
(0.0991542079 0.000296985192 0)
(0.0991164247 0.000201564036 0)
(0.099092409 0.000123732524 0)
(0.0990792041 7.69655176e-05 0)
(0.0990718264 7.01674893e-05 0)
(0.0990641214 0.000105050928 0)
(0.0990502906 0.000175612936 0)
(0.0990259173 0.000270150976 0)
(0.0989883422 0.000374228096 0)
(0.0989369037 0.000473451205 0)
(0.0988728952 0.000555680835 0)
(0.0987991673 0.000612316175 0)
(0.0987195874 0.00063860441 0)
(0.0986385135 0.000633246977 0)
(0.0985603515 0.00059769892 0)
(0.0984892273 0.000535537614 0)
(0.0984287459 0.000452147366 0)
(0.0983817649 0.000354745884 0)
(0.0983501208 0.000252518252 0)
(0.0983343233 0.000156440563 0)
(0.0983333142 7.83959345e-05 0)
(0.0983444437 2.94377324e-05 0)
(0.0983634993 1.73332886e-05 0)
(0.0983848616 4.46595442e-05 0)
(0.0984028066 0.000107663799 0)
(0.0984128297 0.000196477289 0)
(0.0984120771 0.000296924215 0)
(0.0983997213 0.000393911961 0)
(0.0983769925 0.000474990051 0)
(0.0983466722 0.000533062797 0)
(0.0983122167 0.000567416215 0)
(0.0982768142 0.000582800379 0)
(0.0982426705 0.000587041803 0)
(0.0982107074 0.000588178855 0)
(0.0981806896 0.000592180446 0)
(0.0981516425 0.000601918702 0)
(0.0981223459 0.000617447096 0)
(0.0980917186 0.000637109406 0)
(0.098059 0.00065880208 0)
(0.0980237484 0.000680857955 0)
(0.0979857349 0.000702355677 0)
(0.0979448262 0.000722972565 0)
(0.0979009109 0.000742647305 0)
(0.097853882 0.000761288987 0)
(0.0978036567 0.000778642069 0)
(0.0977502064 0.000794293816 0)
(0.0976935777 0.000807750524 0)
(0.0976339004 0.000818513316 0)
(0.0975713847 0.000826120714 0)
(0.0975063146 0.000830159272 0)
(0.0974390406 0.00083025869 0)
(0.0973699743 0.000826086002 0)
(0.0972995821 0.000817344841 0)
(0.0972283798 0.000803778814 0)
(0.0971569244 0.000785175787 0)
(0.0970858073 0.000761370783 0)
(0.0970156451 0.000732246943 0)
(0.0969470738 0.000697735059 0)
(0.0968807427 0.000657812288 0)
(0.0968173113 0.00061250033 0)
(0.0967574473 0.000561863247 0)
(0.0967018242 0.000506005155 0)
(0.0966511202 0.000445068129 0)
(0.096606015 0.000379230999 0)
(0.0965671868 0.000308710538 0)
(0.0965353097 0.000233764967 0)
(0.0965110504 0.000154697853 0)
(0.0964950219 7.18585402e-05 0)
(0.0964877915 -1.44151944e-05 0)
(0.0964900177 -0.000103755114 0)
(0.0965023459 -0.000195666204 0)
(0.0965252715 -0.000289604791 0)
(0.0965592176 -0.000384961198 0)
(0.096604535 -0.000481043252 0)
(0.0966614742 -0.000577082769 0)
(0.0967301666 -0.000672243169 0)
(0.0968106118 -0.000765628586 0)
(0.0969026652 -0.000856297467 0)
(0.0970060264 -0.000943280053 0)
(0.097120231 -0.00102560005 0)
(0.097244648 -0.00110230027 0)
(0.0973784812 -0.00117247079 0)
(0.0975207784 -0.00123527761 0)
(0.0976704447 -0.00128999004 0)
(0.097826264 -0.00133600493 0)
(0.0979869239 -0.00137286611 0)
(0.098151046 -0.00140027823 0)
(0.0983172177 -0.00141811434 0)
(0.0984840254 -0.00142641698 0)
(0.0986500873 -0.00142539301 0)
(0.0988140831 -0.00141540275 0)
(0.0989747808 -0.00139694395 0)
(0.0991310589 -0.00137063189 0)
(0.0992819232 -0.00133717675 0)
(0.0994265188 -0.00129735945 0)
(0.0995641358 -0.00125200731 0)
(0.0996942108 -0.00120197055 0)
(0.0998163238 -0.00114810049 0)
(0.0999301909 -0.00109123023 0)
(0.100035655 -0.00103215814 0)
(0.100132673 -0.00097163434 0)
(0.100221305 -0.000910350378 0)
(0.100301697 -0.000848931829 0)
(0.100374072 -0.000787933793 0)
(0.100438713 -0.000727839178 0)
(0.100495954 -0.000669059888 0)
(0.100546168 -0.000611940575 0)
(0.100589753 -0.000556763244 0)
(0.100627126 -0.00050375151 0)
(0.100658709 -0.000453075121 0)
(0.100684926 -0.000404855073 0)
(0.100706195 -0.000359169018 0)
(0.100722922 -0.000316056365 0)
(0.100735502 -0.000275523377 0)
(0.100744311 -0.000237548402 0)
(0.100749711 -0.000202086805 0)
(0.100752044 -0.000169075394 0)
(0.100751632 -0.000138436583 0)
(0.100748785 -0.000110083006 0)
(0.100743791 -8.39236708e-05 0)
(0.10073692 -5.9869075e-05 0)
(0.100728405 -3.78260286e-05 0)
(0.100718426 -1.76943909e-05 0)
(0.100707126 7.31720102e-07 0)
(0.100694756 1.7453934e-05 0)
(0.100681578 3.25482491e-05 0)
(0.100667723 4.60850132e-05 0)
(0.100653267 5.81587039e-05 0)
(0.100638279 6.88651958e-05 0)
(0.100622833 7.82957775e-05 0)
(0.100606998 8.65468639e-05 0)
(0.100590843 9.3716496e-05 0)
(0.100574434 9.98998644e-05 0)
(0.100557839 0.000105185556 0)
(0.100541122 0.000109653744 0)
(0.100524346 0.000113377798 0)
(0.100507569 0.000116425646 0)
(0.10049085 0.000118860082 0)
(0.100474236 0.000120739223 0)
(0.10045777 0.000122116898 0)
(0.100441485 0.000123042748 0)
(0.100425409 0.000123562121 0)
(0.100409567 0.000123715958 0)
(0.100393978 0.000123540933 0)
(0.100378659 0.000123069864 0)
(0.100363626 0.000122332241 0)
(0.100348893 0.000121354705 0)