/*--------------------------------*- C++ -*----------------------------------*\
| =========                 |                                                 |
| \\      /  F ield         | OpenFOAM: The Open Source CFD Toolbox           |
|  \\    /   O peration     | Version:  v2012                                 |
|   \\  /    A nd           | Website:  www.openfoam.com                      |
|    \\/     M anipulation  |                                                 |
\*---------------------------------------------------------------------------*/
FoamFile
{
    version     2.0;
    format      ascii;
    class       surfaceVectorField;
    location    "2.44";
    object      Uf;
}
// * * * * * * * * * * * * * * * * * * * * * * * * * * * * * * * * * * * * * //

dimensions      [0 1 -1 0 0 0 0];


internalField   nonuniform List<vector> 
56481
(
(0.0999932535 2.67976498e-05 0)
(0.0999993068 1.8740456e-05 0)
(0.0999727443 5.80083433e-05 0)
(0.0999892263 6.24022591e-05 0)
(0.0999371547 9.208123e-05 0)
(0.0999641005 0.000112122093 0)
(0.0998867647 0.000125517294 0)
(0.0999218757 0.000163039359 0)
(0.0998232496 0.00015457465 0)
(0.0998641599 0.000209557876 0)
(0.0997492716 0.000176265883 0)
(0.0997937801 0.000247089453 0)
(0.0996681703 0.000188625797 0)
(0.0997138451 0.000272341635 0)
(0.0995836151 0.000190906579 0)
(0.0996279489 0.000283527139 0)
(0.0994992136 0.000183584884 0)
(0.0995400703 0.000280627684 0)
(0.0994182326 0.000167939853 0)
(0.0994540567 0.000265054271 0)
(0.0993435303 0.000145537153 0)
(0.0993732831 0.00023878474 0)
(0.0992775879 0.000118154652 0)
(0.0993006608 0.000203854049 0)
(0.0992224174 8.81907015e-05 0)
(0.0992386824 0.000162741675 0)
(0.099179212 5.90407262e-05 0)
(0.0991891811 0.000119214957 0)
(0.0991478283 3.48926769e-05 0)
(0.0991527823 7.86901204e-05 0)
(0.0991263368 1.99042899e-05 0)
(0.0991283433 4.75310758e-05 0)
(0.0991108947 1.72042127e-05 0)
(0.0991127553 3.15686798e-05 0)
(0.0990962243 2.79560355e-05 0)
(0.0991013465 3.45321864e-05 0)
(0.0990770826 5.1035532e-05 0)
(0.0990888848 5.65183172e-05 0)
(0.0990495557 8.36457634e-05 0)
(0.099070249 9.41307948e-05 0)
(0.099011498 0.0001219095 0)
(0.0990412511 0.000142089856 0)
(0.0989625849 0.000161197831 0)
(0.0989999451 0.000194045622 0)
(0.0989040546 0.000196864887 0)
(0.0989466871 0.000243373302 0)
(0.0988382299 0.0002251049 0)
(0.0988832689 0.000284429602 0)
(0.0987680368 0.000243332645 0)
(0.098812456 0.000313265001 0)
(0.0986966277 0.000250203892 0)
(0.0987377281 0.000327638998 0)
(0.0986270973 0.000245564567 0)
(0.0986628103 0.000326860994 0)
(0.0985622896 0.000230371156 0)
(0.0985912439 0.000311623825 0)
(0.0985046769 0.000206571005 0)
(0.0985261884 0.000283816648 0)
(0.09845625 0.000176981444 0)
(0.0984703237 0.000246383547 0)
(0.098418366 0.000145174527 0)
(0.0984257143 0.000203264595 0)
(0.0983915703 0.000115299473 0)
(0.0983936073 0.000159332226 0)
(0.0983755837 9.17132986e-05 0)
(0.0983742298 0.000120153177 0)
(0.0983685429 7.84692791e-05 0)
(0.0983664621 9.13305285e-05 0)
(0.0983673791 7.87017286e-05 0)
(0.0983676971 7.78327502e-05 0)
(0.0983687346 9.38881962e-05 0)
(0.0983741834 8.29372412e-05 0)
(0.098368962 0.000123331648 0)
(0.0983815848 0.000107555428 0)
(0.098364875 0.000164127565 0)
(0.0983856489 0.000149279183 0)
(0.0983543075 0.000211656827 0)
(0.0983829268 0.000202916658 0)
(0.0983364302 0.000260555761 0)
(0.0983714011 0.000261595874 0)
(0.0983117743 0.000305894902 0)
(0.0983507998 0.00031827002 0)
(0.0982819276 0.000344210082 0)
(0.0983224696 0.000367290036 0)
(0.0982490014 0.000374072939 0)
(0.0982888516 0.000405529991 0)
(0.0982150418 0.000396049122 0)
(0.0982527348 0.000432723842 0)
(0.0981815641 0.000412113086 0)
(0.0982165269 0.000450962631 0)
(0.0981493262 0.000424776832 0)
(0.0981817592 0.000463604994 0)
(0.0981183617 0.00043626407 0)
(0.0981489393 0.000474043632 0)
(0.0980882002 0.000447993124 0)
(0.0981177262 0.000484765015 0)
(0.0980581576 0.000460465657 0)
(0.0980872959 0.00049695476 0)
(0.0980275805 0.000473482463 0)
(0.0980567249 0.000510640747 0)
(0.0979959825 0.000486503569 0)
(0.0980252597 0.000525160706 0)
(0.0979630684 0.000498969649 0)
(0.0979924204 0.000539674413 0)
(0.0979286842 0.000510479388 0)
(0.0979579679 0.000553511994 0)
(0.0978927478 0.000520815202 0)
(0.0979218054 0.000566289832 0)
(0.0978551973 0.000529876051 0)
(0.0978838854 0.000577848633 0)
(0.0978159718 0.000537590861 0)
(0.0978441574 0.000588121887 0)
(0.0977750172 0.000543861539 0)
(0.0978025613 0.000597026432 0)
(0.0977323042 0.000548548104 0)
(0.0977590473 0.000604415022 0)
(0.0976878435 0.000551482754 0)
(0.0977136004 0.000610083162 0)
(0.0976416949 0.000552492498 0)
(0.0976662571 0.000613800664 0)
(0.097593969 0.000551416314 0)
(0.0976171108 0.000615341516 0)
(0.0975448257 0.00054811282 0)
(0.0975663101 0.000614500267 0)
(0.0974944714 0.000542461177 0)
(0.0975140548 0.000611096075 0)
(0.097443157 0.000534359604 0)
(0.0974605921 0.000604971013 0)
(0.0973911758 0.000523724401 0)
(0.0974062136 0.000595988177 0)
(0.0973388604 0.00051049024 0)
(0.0973512532 0.000584031817 0)
(0.0972865798 0.000494611378 0)
(0.0972960838 0.000569009121 0)
(0.097234735 0.000476063288 0)
(0.0972411137 0.000550852474 0)
(0.0971837547 0.000454844459 0)
(0.0971867822 0.000529521406 0)
(0.0971340915 0.000430978259 0)
(0.0971335555 0.000505003947 0)
(0.0970862189 0.000404514662 0)
(0.0970819226 0.000477317451 0)
(0.0970406293 0.000375531232 0)
(0.0970323926 0.000446508804 0)
(0.096997834 0.000344132826 0)
(0.0969854923 0.000412653693 0)
(0.0969583625 0.000310449075 0)
(0.0969417645 0.000375854786 0)
(0.0969227648 0.000274629252 0)
(0.0969017659 0.000336236688 0)
(0.0968916159 0.000236833405 0)
(0.096866064 0.000293935518 0)
(0.0968654907 0.000197217908 0)
(0.0968352319 0.000249122239 0)
(0.0968449313 0.000155928083 0)
(0.0968098357 0.000201986606 0)
(0.096830422 0.000113110264 0)
(0.0967904128 0.000152723611 0)
(0.0968223461 6.89419354e-05 0)
(0.0967774519 0.000101571269 0)
(0.0968209553 2.37573066e-05 0)
(0.0967714059 4.88346653e-05 0)
(0.0968262591 -2.18294164e-05 0)
(0.0967726489 -5.06959055e-06 0)
(0.0968404455 -6.76558545e-05 0)
(0.0967819374 -6.01475587e-05 0)
(0.0968632349 -0.000113948935 0)
(0.0967999981 -0.000115791838 0)
(0.0968947525 -0.000160571423 0)
(0.0968269728 -0.000172067166 0)
(0.096935084 -0.000207230875 0)
(0.0968629713 -0.000228614643 0)
(0.0969842907 -0.000253629857 0)
(0.0969081459 -0.000285090334 0)
(0.0970423652 -0.000299453883 0)
(0.0969625585 -0.000341115849 0)
(0.0971092124 -0.000344366653 0)
(0.0970261666 -0.000396269934 0)
(0.0971846452 -0.000388019439 0)
(0.0970988417 -0.000450110748 0)
(0.0972683808 -0.000430052929 0)
(0.0971803577 -0.000502182806 0)
(0.0973600409 -0.00047009851 0)
(0.097270383 -0.000552020109 0)
(0.097459156 -0.000507784765 0)
(0.0973684846 -0.000599154815 0)
(0.0975651736 -0.000542748261 0)
(0.0974741342 -0.000643129102 0)
(0.0976774656 -0.000574646673 0)
(0.0975867149 -0.000683508391 0)
(0.0977953374 -0.000603172339 0)
(0.0977055293 -0.000719895184 0)
(0.0979180357 -0.000628064198 0)
(0.0978298081 -0.000751942228 0)
(0.0980447583 -0.000649116495 0)
(0.0979587209 -0.00077936355 0)
(0.0981746639 -0.000666183766 0)
(0.0980913867 -0.000801942543 0)
(0.0983068838 -0.000679182689 0)
(0.0982268878 -0.000819537039 0)
(0.0984405361 -0.000688091615 0)
(0.0983642843 -0.000832081588 0)
(0.09857474 -0.000692948572 0)
(0.0985026308 -0.000839587278 0)
(0.0987086305 -0.000693848229 0)
(0.0986409927 -0.000842139441 0)
(0.0988413731 -0.000690937895 0)
(0.0987784631 -0.000839893462 0)
(0.098972176 -0.000684412538 0)
(0.098914177 -0.000833068868 0)
(0.0991003016 -0.00067450882 0)
(0.0990473249 -0.000821941899 0)
(0.0992250754 -0.000661498244 0)
(0.0991771634 -0.000806836868 0)
(0.0993458925 -0.000645679684 0)
(0.0993030238 -0.000788116642 0)
(0.0994622224 -0.000627371591 0)
(0.0994243177 -0.000766172679 0)
(0.0995736118 -0.000606904233 0)
(0.0995405406 -0.000741415019 0)
(0.0996796847 -0.000584612263 0)
(0.0996512729 -0.000714262616 0)
(0.0997801413 -0.000560827898 0)
(0.0997561793 -0.000685134333 0)
(0.0998747549 -0.000535874796 0)
(0.0998550054 -0.000654440804 0)
(0.0999633664 -0.000510062543 0)
(0.0999475732 -0.000622577203 0)
(0.100045876 -0.000483681489 0)
(0.100033774 -0.000589916453 0)
(0.100122228 -0.000456996763 0)
(0.100113562 -0.000556802446 0)
(0.100192407 -0.000430237788 0)
(0.100186939 -0.000523541561 0)
(0.100256471 -0.000403591635 0)
(0.100253958 -0.000490386689 0)
(0.100314582 -0.000377217794 0)
(0.100314754 -0.000457538653 0)
(0.100366966 -0.000351267831 0)
(0.100369539 -0.000425183129 0)
(0.100413856 -0.000325884002 0)
(0.10041856 -0.000393501965 0)
(0.100455492 -0.000301189413 0)
(0.100462072 -0.000362653446 0)
(0.100492114 -0.000277282667 0)
(0.10050034 -0.000332763361 0)
(0.100523954 -0.000254229548 0)
(0.100533638 -0.000303923477 0)
(0.100551287 -0.000232067762 0)
(0.100562248 -0.000276246097 0)
(0.100574401 -0.00021082288 0)
(0.100586461 -0.000249782029 0)
(0.100593586 -0.000190513332 0)
(0.100606577 -0.000224555081 0)
(0.100609129 -0.000171149967 0)
(0.100622892 -0.000200577544 0)
(0.100621313 -0.000152735658 0)
(0.100635702 -0.000177850189 0)
(0.100630413 -0.000135264543 0)
(0.100645295 -0.000156362867 0)
(0.100636689 -0.000118719083 0)
(0.100651952 -0.000136092992 0)
(0.100640389 -0.000103068769 0)
(0.100655944 -0.000117003782 0)
(0.100641751 -8.827208e-05 0)
(0.100657527 -9.90524139e-05 0)
(0.100641014 -7.42790903e-05 0)
(0.100656948 -8.21918721e-05 0)
(0.100638424 -6.10368195e-05 0)
(0.100654452 -6.63748335e-05 0)
(0.100634245 -4.84997788e-05 0)
(0.100650284 -5.15619319e-05 0)
(0.100628767 -3.66497745e-05 0)
(0.100644684 -3.77358673e-05 0)
(0.100622322 -2.55305519e-05 0)
(0.100637888 -2.49294374e-05 0)
(0.100615234 -1.53171124e-05 0)
(0.10063006 -1.32057345e-05 0)
(0.100607777 -6.27316888e-06 0)
(0.100621402 -2.75410976e-06 0)
(0.100599537 1.48923046e-06 0)
(0.100612106 7.01316865e-06 0)
(0.100590061 8.11289558e-06 0)
(0.100602086 1.54576117e-05 0)
(0.100579437 1.38424001e-05 0)
(0.100591166 2.26626532e-05 0)
(0.100567888 1.88805887e-05 0)
(0.100579341 2.89282764e-05 0)
(0.100555571 2.33518655e-05 0)
(0.100566729 3.44398326e-05 0)
(0.100542623 2.73256603e-05 0)
(0.100553497 3.9298047e-05 0)
(0.100529161 3.08550676e-05 0)
(0.100539779 4.3567974e-05 0)
(0.100515294 3.3991715e-05 0)
(0.10052567 4.73121172e-05 0)
(0.100501116 3.67813181e-05 0)
(0.100511251 5.05892033e-05 0)
(0.100486716 3.92604344e-05 0)
(0.100496607 5.34477392e-05 0)
(0.100472175 4.14576094e-05 0)
(0.100481815 5.59278476e-05 0)
(0.100457564 4.33945249e-05 0)
(0.100466943 5.80637124e-05 0)
(0.100442945 4.50870346e-05 0)
(0.100452052 5.98838038e-05 0)
(0.100428371 4.65471552e-05 0)
(0.100437196 6.14116765e-05 0)
(0.100413884 4.77852802e-05 0)
(0.100422419 6.26676655e-05 0)
(0.100399519 4.881172e-05 0)
(0.100407761 6.36702096e-05 0)
(0.100385306 4.96375249e-05 0)
(0.100393252 6.44365956e-05 0)
(0.100371268 5.02748037e-05 0)
(0.10037892 6.49834587e-05 0)
(0.100357424 5.073666e-05 0)
(0.100364787 6.53271105e-05 0)
(0.100343794 5.1036868e-05 0)
(0.100350873 6.54836476e-05 0)
(0.100330391 5.11894383e-05 0)
(0.100337194 6.54688746e-05 0)
(0.100317232 5.12081803e-05 0)
(0.100323766 6.5298131e-05 0)
(0.100304328 5.11063095e-05 0)
(0.100310601 6.49860888e-05 0)
(0.100291692 5.08961201e-05 0)
(0.100297711 6.45465595e-05 0)
(0.100279335 5.05887499e-05 0)
(0.100285107 6.39923248e-05 0)
(0.100267268 5.01940528e-05 0)
(0.100272798 6.333502e-05 0)
(0.1002555 4.97205803e-05 0)
(0.100260793 6.25850819e-05 0)
(0.100244038 4.91756519e-05 0)
(0.100249098 6.17517626e-05 0)
(0.100232889 4.8565498e-05 0)
(0.100237721 6.08432019e-05 0)
(0.100222058 4.78954514e-05 0)
(0.100226665 5.9866547e-05 0)
(0.10021155 4.71701636e-05 0)
(0.100215936 5.88281033e-05 0)
(0.100201366 4.63938197e-05 0)
(0.100205535 5.77334961e-05 0)
(0.10019151 4.55703255e-05 0)
(0.100195465 5.65878259e-05 0)
(0.100181981 4.4703451e-05 0)
(0.100185727 5.53958008e-05 0)
(0.100172781 4.37969228e-05 0)
(0.100176321 5.41618376e-05 0)
(0.100163909 4.28544611e-05 0)
(0.100167247 5.28901269e-05 0)
(0.100155365 4.18797705e-05 0)
(0.100158506 5.15846611e-05 0)
(0.100147149 4.0876494e-05 0)
(0.100150096 5.02492306e-05 0)
(0.100139261 3.98481428e-05 0)
(0.100142018 4.8887397e-05 0)
(0.100131701 3.87980163e-05 0)
(0.100134271 4.75024476e-05 0)
(0.100124468 3.77291218e-05 0)
(0.100126855 4.60973415e-05 0)
(0.100117564 3.66441169e-05 0)
(0.100119769 4.46746374e-05 0)
(0.100110989 3.55451767e-05 0)
(0.100113015 4.32364516e-05 0)
(0.100104745 3.44341644e-05 0)
(0.100106591 4.17841643e-05 0)
(0.100098834 3.3311163e-05 0)
(0.100100505 4.03190095e-05 0)
(0.100093261 3.21799799e-05 0)
(0.100094734 3.88378472e-05 0)
(0.100088031 3.10193605e-05 0)
(0.100089374 3.73501891e-05 0)
(0.100083163 2.99099624e-05 0)
(0.100084111 3.57905626e-05 0)
(0.100078645 2.84253837e-05 0)
(0.100080118 3.44162647e-05 0)
(0.100073645 3.18982421e-05 0)
(0.0999968437 5.03490497e-05 0)
(0.0999994941 2.2375025e-05 0)
(0.0999803589 0.000110156086 0)
(0.0999905841 8.13847032e-05 0)
(0.0999477475 0.000174637287 0)
(0.0999669161 0.000149674632 0)
(0.0998987219 0.000236914776 0)
(0.0999256671 0.000219493033 0)
(0.0998346999 0.00029058569 0)
(0.0998681671 0.000283280222 0)
(0.0997584107 0.000330749365 0)
(0.0997972763 0.000334937654 0)
(0.0996735417 0.000354295322 0)
(0.0997161773 0.000370069471 0)
(0.0995842801 0.000360160111 0)
(0.0996285616 0.000386313258 0)
(0.0994948219 0.000349230849 0)
(0.099538574 0.000383640154 0)
(0.0994090248 0.000323583699 0)
(0.0994502831 0.000363850922 0)
(0.0993302977 0.0002856489 0)
(0.09936729 0.000329440194 0)
(0.0992615919 0.000238161591 0)
(0.0992927063 0.000282969779 0)
(0.0992052347 0.000184952536 0)
(0.0992291947 0.000227637871 0)
(0.0991624888 0.000131718861 0)
(0.0991787387 0.000168437467 0)
(0.0991330217 8.58318794e-05 0)
(0.0991420982 0.000112621921 0)
(0.099114593 5.49435556e-05 0)
(0.0991182318 6.87520519e-05 0)
(0.0991032677 4.50030445e-05 0)
(0.0991040852 4.4609914e-05 0)
(0.0990941781 5.85284382e-05 0)
(0.0990948834 4.4999024e-05 0)
(0.0990819388 9.3745485e-05 0)
(0.0990849604 7.06119693e-05 0)
(0.0990614488 0.000145269677 0)
(0.0990688911 0.000117725425 0)
(0.0990291957 0.000205692196 0)
(0.0990424262 0.000179229748 0)
(0.0989837522 0.000266891746 0)
(0.0990031903 0.000246374474 0)
(0.0989256589 0.000321291191 0)
(0.0989509734 0.000310268586 0)
(0.098857173 0.000363008923 0)
(0.0988873818 0.000363292167 0)
(0.0987817782 0.000388339256 0)
(0.0988152825 0.000400083308 0)
(0.0987035398 0.000395636153 0)
(0.0987383523 0.000417731626 0)
(0.0986265801 0.000385013695 0)
(0.0986606233 0.0004154813 0)
(0.0985547492 0.000358058766 0)
(0.0985860505 0.000394338153 0)
(0.0984914251 0.000317621089 0)
(0.0985182309 0.000356735273 0)
(0.0984393579 0.000267725869 0)
(0.0984602434 0.000306339728 0)
(0.0984004896 0.000213558638 0)
(0.0984144881 0.000248022043 0)
(0.0983757158 0.000161347107 0)
(0.0983824651 0.000187859589 0)
(0.0983646206 0.000117897196 0)
(0.0983645049 0.000132929547 0)
(0.0983652146 8.97829777e-05 0)
(0.0983595016 9.06464747e-05 0)
(0.0983740378 8.22424946e-05 0)
(0.0983648035 6.76727813e-05 0)
(0.0983865069 9.7879122e-05 0)
(0.0983763734 6.85788728e-05 0)
(0.0983977308 0.000135719411 0)
(0.0983893355 9.46308577e-05 0)
(0.0984031708 0.000191135044 0)
(0.098398813 0.000143014927 0)
(0.0983995101 0.000256724919 0)
(0.0984007775 0.000207132063 0)
(0.0983852871 0.000323944458 0)
(0.0983927633 0.000277973834 0)
(0.0983610454 0.00038503677 0)
(0.0983742611 0.000346184788 0)
(0.0983289826 0.000434695666 0)
(0.0983466435 0.000404210753 0)
(0.0982922147 0.000470953494 0)
(0.0983126253 0.000447868791 0)
(0.0982538896 0.000495058715 0)
(0.0982754278 0.000476855825 0)
(0.0982164301 0.0005104742 0)
(0.0982379192 0.000494097817 0)
(0.0981811178 0.00052143001 0)
(0.0982019959 0.000504267619 0)
(0.0981480872 0.000531576343 0)
(0.0981683597 0.000512078832 0)
(0.0981166447 0.000543163711 0)
(0.0981366854 0.000520971551 0)
(0.0980857276 0.000556900489 0)
(0.0981060349 0.000532556218 0)
(0.0980543125 0.000572347254 0)
(0.0980753152 0.000546815754 0)
(0.0980216516 0.000588537369 0)
(0.0980436138 0.000562770269 0)
(0.0979873203 0.000604517187 0)
(0.098010339 0.000579207401 0)
(0.0979511359 0.000619633374 0)
(0.0979751925 0.000595178851 0)
(0.0979130356 0.000633560993 0)
(0.0979380563 0.000610162905 0)
(0.0978729826 0.000646176831 0)
(0.0978988788 0.000623970314 0)
(0.0978309269 0.000657404764 0)
(0.0978576081 0.000636549619 0)
(0.0977868122 0.000667115905 0)
(0.09781418 0.000647825138 0)
(0.0977406028 0.000675103049 0)
(0.0977685392 0.000657625895 0)
(0.0976923088 0.00068110518 0)
(0.0977206681 0.000665694387 0)
(0.097642 0.000684846343 0)
(0.097670607 0.000671731957 0)
(0.0975898076 0.000686064694 0)
(0.0976184603 0.000675441914 0)
(0.0975359197 0.000684525128 0)
(0.0975643947 0.000676552963 0)
(0.0974805765 0.000680020541 0)
(0.0975086333 0.000674824574 0)
(0.0974240658 0.000672369467 0)
(0.097451451 0.000670043969 0)
(0.0973667198 0.000661415017 0)
(0.0973931704 0.000662022945 0)
(0.0973089125 0.000647026172 0)
(0.0973341589 0.000650597772 0)
(0.0972510563 0.000629100298 0)
(0.0972748249 0.000635631513 0)
(0.0971935976 0.000607565488 0)
(0.0972156139 0.000617016961 0)
(0.0971370135 0.000582381913 0)
(0.0971570034 0.000594678912 0)
(0.0970818066 0.000553542098 0)
(0.0970994983 0.000568575436 0)
(0.0970285022 0.00052107039 0)
(0.0970436262 0.000538698359 0)
(0.0969776437 0.000485021724 0)
(0.0969899337 0.000505073108 0)
(0.09692979 0.00044547982 0)
(0.0969389834 0.000467757873 0)
(0.0968855116 0.00040255465 0)
(0.0968913505 0.000426842075 0)
(0.0968453838 0.000356379033 0)
(0.0968476197 0.000382444407 0)
(0.0968099731 0.000307104196 0)
(0.0968083808 0.000334711508 0)
(0.096779843 0.000254893965 0)
(0.0967742211 0.00028381756 0)
(0.0967555494 0.000199924575 0)
(0.0967457222 0.000229961015 0)
(0.096737633 0.00014240421 0)
(0.0967234591 0.000173354619 0)
(0.0967266657 8.26126848e-05 0)
(0.0967079975 0.00011420031 0)
(0.0967233475 2.091592e-05 0)
(0.0966998637 5.26555966e-05 0)
(0.0967282866 -4.21504763e-05 0)
(0.0966995855 -1.07570485e-05 0)
(0.0967415728 -0.000106237642 0)
(0.0967076857 -7.54468356e-05 0)
(0.0967637902 -0.000171211895 0)
(0.0967246588 -0.000141375515 0)
(0.0967951995 -0.000236746707 0)
(0.0967508958 -0.000208235378 0)
(0.0968360276 -0.000302418916 0)
(0.0967866405 -0.000275628822 0)
(0.0968863929 -0.000367787517 0)
(0.0968320775 -0.000343086816 0)
(0.09694632 -0.000432377553 0)
(0.0968873101 -0.000410122752 0)
(0.0970157427 -0.000495676127 0)
(0.0969523377 -0.000476211224 0)
(0.0970944926 -0.000557146655 0)
(0.0970270573 -0.000540792397 0)
(0.0971822927 -0.000616240003 0)
(0.0971112583 -0.000603285972 0)
(0.0972787576 -0.000672404845 0)
(0.0972046155 -0.000663100927 0)
(0.0973833958 -0.000725100657 0)
(0.0973066895 -0.000719647228 0)
(0.0974956144 -0.000773811745 0)
(0.0974169294 -0.000772350517 0)
(0.0976147265 -0.00081806096 0)
(0.0975346784 -0.00082066783 0)
(0.09773996 -0.000857422718 0)
(0.0976591812 -0.000864103397 0)
(0.0978704676 -0.000891534949 0)
(0.0977895938 -0.000902223712 0)
(0.0980053397 -0.00092010927 0)
(0.0979249966 -0.000934670746 0)
(0.0981436183 -0.00094293887 0)
(0.0980644091 -0.000961172401 0)
(0.0982843135 -0.000959903876 0)
(0.0982068077 -0.000981549798 0)
(0.0984264217 -0.000970973832 0)
(0.098351144 -0.000995721207 0)
(0.0985689429 -0.000976207185 0)
(0.0984963655 -0.00100370264 0)
(0.0987109001 -0.00097574792 0)
(0.0986414351 -0.00100560526 0)
(0.0988513554 -0.000969819587 0)
(0.0987853505 -0.00100162992 0)
(0.0989894259 -0.000958717142 0)
(0.0989271614 -0.000992059111 0)
(0.0991242961 -0.000942797103 0)
(0.0990659846 -0.000977246905 0)
(0.0992552282 -0.000922466494 0)
(0.0992010164 -0.00095760722 0)
(0.0993815701 -0.000898171152 0)
(0.0993315414 -0.000933601132 0)
(0.0995027591 -0.000870383817 0)
(0.0994569391 -0.000905723724 0)
(0.0996183251 -0.000839592495 0)
(0.0995766869 -0.000874491027 0)
(0.0997278894 -0.000806289426 0)
(0.0996903604 -0.000840427527 0)
(0.0998311623 -0.00077096101 0)
(0.0997976316 -0.000804054621 0)
(0.0999279387 -0.000734078743 0)
(0.0998982643 -0.000765880273 0)
(0.100018092 -0.00069609106 0)
(0.0999921084 -0.000726389965 0)
(0.100101567 -0.000657415876 0)
(0.100079092 -0.000686038872 0)
(0.100178372 -0.000618432704 0)
(0.100159215 -0.000645245289 0)
(0.100248578 -0.00057947086 0)
(0.100232539 -0.000604384272 0)
(0.100312313 -0.000540802863 0)
(0.100299186 -0.000563778766 0)
(0.100369769 -0.000502661922 0)
(0.100359334 -0.000523700404 0)
(0.100421183 -0.00046526436 0)
(0.10041322 -0.000484387068 0)
(0.100466818 -0.00042880771 0)
(0.100461112 -0.000446050734 0)
(0.100506954 -0.000393459562 0)
(0.100503302 -0.00040887138 0)
(0.100541892 -0.000359352815 0)
(0.100540094 -0.000372994897 0)
(0.100571951 -0.00032658116 0)
(0.10057181 -0.000338536254 0)
(0.10059743 -0.000295203941 0)
(0.10059877 -0.000305585858 0)
(0.100618634 -0.000265258841 0)
(0.100621293 -0.000274198798 0)
(0.100635871 -0.000236767673 0)
(0.100639694 -0.000244403151 0)
(0.100649444 -0.000209737932 0)
(0.100654289 -0.000216208065 0)
(0.100659655 -0.000184164072 0)
(0.100665388 -0.000189607991 0)
(0.100666798 -0.000160029634 0)
(0.100673291 -0.00016458813 0)
(0.100671168 -0.000137310364 0)
(0.100678289 -0.000141124677 0)
(0.100673038 -0.000115973681 0)
(0.100680662 -0.000119157552 0)
(0.100672672 -9.59765467e-05 0)
(0.100680677 -9.86303915e-05 0)
(0.100670323 -7.72681618e-05 0)
(0.100678592 -7.94870152e-05 0)
(0.100666235 -5.97975799e-05 0)
(0.100674652 -6.16676819e-05 0)
(0.100660635 -4.35287201e-05 0)
(0.100669082 -4.51138164e-05 0)
(0.100653719 -2.84613406e-05 0)
(0.100662085 -2.9771625e-05 0)
(0.10064558 -1.45918022e-05 0)
(0.100653898 -1.55574049e-05 0)
(0.100636099 -1.88417907e-06 0)
(0.100644722 -2.28876026e-06 0)
(0.100625731 9.57396964e-06 0)
(0.100634617 9.18522171e-06 0)
(0.100614843 1.96275101e-05 0)
(0.100623699 1.9551522e-05 0)
(0.1006033 2.83150336e-05 0)
(0.100612101 2.87486987e-05 0)
(0.100591028 3.58391731e-05 0)
(0.100599839 3.67949189e-05 0)
(0.10057809 4.24105716e-05 0)
(0.100586913 4.38264595e-05 0)
(0.100564586 4.81789216e-05 0)
(0.100573375 4.99889544e-05 0)
(0.100550612 5.32354527e-05 0)
(0.100559321 5.53900087e-05 0)
(0.100536252 5.76479031e-05 0)
(0.10054486 6.01031143e-05 0)
(0.100521592 6.14809167e-05 0)
(0.100530082 6.41940224e-05 0)
(0.100506709 6.47938189e-05 0)
(0.100515064 6.77273295e-05 0)
(0.100491674 6.76373331e-05 0)
(0.100499879 7.07600358e-05 0)
(0.100476553 7.00556228e-05 0)
(0.100484596 7.33402472e-05 0)
(0.100461403 7.20878148e-05 0)
(0.10046928 7.55092852e-05 0)
(0.100446276 7.37680239e-05 0)
(0.100453983 7.730261e-05 0)
(0.100431219 7.51258843e-05 0)
(0.100438755 7.87506274e-05 0)
(0.100416271 7.61875657e-05 0)
(0.100423638 7.98801643e-05 0)
(0.100401468 7.69765352e-05 0)
(0.100408665 8.07157499e-05 0)
(0.100386841 7.75140976e-05 0)
(0.100393866 8.12803281e-05 0)
(0.100372414 7.78199241e-05 0)
(0.100379267 8.15956503e-05 0)
(0.100358211 7.79125225e-05 0)
(0.100364889 8.16825106e-05 0)
(0.100344249 7.78095263e-05 0)
(0.100350749 8.15608235e-05 0)
(0.100330545 7.75277936e-05 0)
(0.100336865 8.12495764e-05 0)
(0.100317112 7.70833887e-05 0)
(0.100323249 8.0766729e-05 0)
(0.100303961 7.64915169e-05 0)
(0.100309914 8.01291128e-05 0)
(0.100291103 7.576644e-05 0)
(0.100296871 7.93523381e-05 0)
(0.100278547 7.49213944e-05 0)
(0.100284128 7.84507199e-05 0)
(0.100266301 7.39685303e-05 0)
(0.100271695 7.74372443e-05 0)
(0.10025437 7.29188926e-05 0)
(0.100259579 7.63235849e-05 0)
(0.100242761 7.17824404e-05 0)
(0.100247784 7.51201625e-05 0)
(0.100231477 7.05681064e-05 0)
(0.100236317 7.38362395e-05 0)
(0.100220523 6.92838818e-05 0)
(0.100225181 7.24800374e-05 0)
(0.100209902 6.79369193e-05 0)
(0.100214379 7.10588697e-05 0)
(0.100199615 6.65336453e-05 0)
(0.100203914 6.95792831e-05 0)
(0.100189663 6.50798669e-05 0)
(0.100193786 6.80471907e-05 0)
(0.100180048 6.35808667e-05 0)
(0.100183995 6.6467988e-05 0)
(0.100170769 6.20414833e-05 0)
(0.100174543 6.48466446e-05 0)
(0.100161826 6.04661679e-05 0)
(0.100165428 6.31877658e-05 0)
(0.100153219 5.88590179e-05 0)
(0.10015665 6.14956247e-05 0)
(0.100144948 5.72237927e-05 0)
(0.100148209 5.97741711e-05 0)
(0.100137011 5.55639077e-05 0)
(0.100140102 5.80270175e-05 0)
(0.100129408 5.38824117e-05 0)
(0.10013233 5.62574061e-05 0)
(0.100122138 5.21819419e-05 0)
(0.100124892 5.44681645e-05 0)
(0.100115202 5.04646777e-05 0)
(0.100117787 5.26616364e-05 0)
(0.100108599 4.87321621e-05 0)
(0.100111016 5.08396512e-05 0)
(0.10010233 4.69855027e-05 0)
(0.100104575 4.90032125e-05 0)
(0.100096395 4.52233447e-05 0)
(0.100098473 4.71533315e-05 0)
(0.100090795 4.34497674e-05 0)
(0.100092684 4.52861828e-05 0)
(0.100085528 4.16334348e-05 0)
(0.100087301 4.34155748e-05 0)
(0.100080599 3.98969505e-05 0)
(0.100082004 4.14658044e-05 0)
(0.100075934 3.76189621e-05 0)
(0.100077977 3.97882657e-05 0)
(0.100071407 3.67550626e-05 0)
(0.099995077 5.65737614e-05 0)
(0.0999994352 2.80439861e-05 0)
(0.0999773017 0.000126223747 0)
(0.0999903034 0.000101853131 0)
(0.0999438562 0.0002018036 0)
(0.0999665858 0.000188187712 0)
(0.0998945047 0.00027472444 0)
(0.0999254453 0.000276321952 0)
(0.0998307241 0.000337707505 0)
(0.0998679517 0.000356724617 0)
(0.0997551085 0.00038518496 0)
(0.0997967855 0.000422010159 0)
(0.0996711143 0.000413520177 0)
(0.0997150785 0.000466790037 0)
(0.099582712 0.000421405415 0)
(0.0996265318 0.0004881099 0)
(0.099493923 0.000409763089 0)
(0.0995353492 0.000485882014 0)
(0.0994084577 0.00038084637 0)
(0.0994457164 0.000462265474 0)
(0.0993295882 0.000337287609 0)
(0.0993613884 0.000420259678 0)
(0.0992601607 0.000282082401 0)
(0.0992856305 0.000362916662 0)
(0.0992025138 0.000219554635 0)
(0.0992212352 0.000294019097 0)
(0.0991581419 0.000156291465 0)
(0.0991702708 0.00021953238 0)
(0.0991271232 0.00010094564 0)
(0.0991335319 0.000148340428 0)
(0.0991075815 6.26045185e-05 0)
(0.0991099581 9.12546297e-05 0)
(0.0990955569 4.83722114e-05 0)
(0.0990963988 5.84564386e-05 0)
(0.0990855395 6.14043415e-05 0)
(0.0990880443 5.65341458e-05 0)
(0.0990718125 0.000100095351 0)
(0.099079222 8.64188311e-05 0)
(0.0990496501 0.000158450466 0)
(0.099064292 0.000143245747 0)
(0.0990160549 0.000227612481 0)
(0.0990387566 0.000217915156 0)
(0.0989700466 0.000297882152 0)
(0.0990001287 0.000299353721 0)
(0.0989123816 0.000360393632 0)
(0.0989481008 0.000376670713 0)
(0.098845162 0.000408228066 0)
(0.0988842051 0.00044069666 0)
(0.0987714898 0.000436950665 0)
(0.0988113332 0.000484917943 0)
(0.098695053 0.000444593539 0)
(0.0987332527 0.000505749694 0)
(0.0986197017 0.000431305123 0)
(0.0986541287 0.000502249441 0)
(0.0985491237 0.000398935128 0)
(0.0985781004 0.000475609796 0)
(0.0984866206 0.000350730098 0)
(0.0985089836 0.000428708645 0)
(0.0984349229 0.000291210741 0)
(0.0984500704 0.000365870376 0)
(0.0983959875 0.000226169906 0)
(0.0984039373 0.000292856801 0)
(0.0983707519 0.000162587251 0)
(0.0983722013 0.000216918746 0)
(0.098358884 0.000108202079 0)
(0.0983552327 0.000146595623 0)
(0.0983585971 7.05984392e-05 0)
(0.0983518903 9.09768173e-05 0)
(0.0983666591 5.58634337e-05 0)
(0.0983594095 5.8389241e-05 0)
(0.0983786887 6.71952267e-05 0)
(0.0983736291 5.47266299e-05 0)
(0.0983898824 0.000103905525 0)
(0.0983895736 8.17410964e-05 0)
(0.0983958901 0.000161149668 0)
(0.0984021951 0.000136097019 0)
(0.0983935182 0.000230693508 0)
(0.098407219 0.000209863287 0)
(0.0983812472 0.000302689226 0)
(0.0984019566 0.000292104079 0)
(0.0983593973 0.000367955889 0)
(0.098385753 0.0003713453 0)
(0.0983298574 0.000420042494 0)
(0.0983599173 0.000438226422 0)
(0.0982954458 0.000456424686 0)
(0.0983271765 0.000487494271 0)
(0.0982591027 0.000478486752 0)
(0.0982908277 0.000518705478 0)
(0.0982231695 0.000490386694 0)
(0.0982538544 0.000535475439 0)
(0.098188963 0.000497307873 0)
(0.0982182777 0.000543656884 0)
(0.0981567256 0.000503778113 0)
(0.098184904 0.00054920071 0)
(0.0981258877 0.000512614171 0)
(0.0981534723 0.000556481882 0)
(0.0980954808 0.000524708946 0)
(0.0981230607 0.000567570254 0)
(0.0980645226 0.000539505719 0)
(0.0980925499 0.00058246455 0)
(0.0980322562 0.000555775594 0)
(0.0980609733 0.000599925528 0)
(0.0979982155 0.000572306789 0)
(0.0980276753 0.000618405769 0)
(0.0979621664 0.0005882778 0)
(0.0979922977 0.00063668991 0)
(0.0979240016 0.000603298007 0)
(0.0979546751 0.000654110319 0)
(0.0978836536 0.000617245201 0)
(0.0979147218 0.000670431582 0)
(0.0978410559 0.000630063093 0)
(0.0978723636 0.000685601604 0)
(0.0977961446 0.000641627909 0)
(0.0978275224 0.000699541175 0)
(0.0977488822 0.000651711757 0)
(0.0977801349 0.000712049181 0)
(0.0976992808 0.00066001255 0)
(0.0977301812 0.000722811158 0)
(0.0976474149 0.000666203954 0)
(0.0976777044 0.000731456356 0)
(0.0975934242 0.000669973172 0)
(0.0976228176 0.000737613061 0)
(0.0975375099 0.000671037306 0)
(0.0975657023 0.000740939073 0)
(0.0974799298 0.000669144617 0)
(0.0975066019 0.000741128923 0)
(0.0974209934 0.000664070838 0)
(0.0974458165 0.000737910134 0)
(0.0973610583 0.000655617092 0)
(0.0973836981 0.000731039166 0)
(0.0973005263 0.000643610954 0)
(0.0973206465 0.000720301317 0)
(0.0972398391 0.000627909261 0)
(0.0972571053 0.000705513767 0)
(0.0971794731 0.000608400992 0)
(0.0971935568 0.000686529316 0)
(0.0971199341 0.000585009279 0)
(0.0971305169 0.000663239012 0)
(0.0970617519 0.000557692522 0)
(0.0970685299 0.00063557311 0)
(0.0970054762 0.000526444819 0)
(0.0970081633 0.000603500683 0)
(0.0969516729 0.000491295727 0)
(0.0969500036 0.000567028404 0)
(0.0969009215 0.000452309239 0)
(0.0968946518 0.000526198884 0)
(0.0968538125 0.000409582236 0)
(0.0968427198 0.000481088809 0)
(0.0968109448 0.000363242464 0)
(0.0967948271 0.000431807244 0)
(0.0967729235 0.000313447426 0)
(0.0967515967 0.000378493548 0)
(0.0967403591 0.000260386568 0)
(0.0967136524 0.000321315972 0)
(0.0967138621 0.000204283839 0)
(0.0966816141 0.000260472718 0)
(0.0966940271 0.000145398723 0)
(0.0966560966 0.000196194897 0)
(0.0966813774 8.40186318e-05 0)
(0.0966377008 0.000128766611 0)