/*--------------------------------*- C++ -*----------------------------------*\
| =========                 |                                                 |
| \\      /  F ield         | OpenFOAM: The Open Source CFD Toolbox           |
|  \\    /   O peration     | Version:  v2012                                 |
|   \\  /    A nd           | Website:  www.openfoam.com                      |
|    \\/     M anipulation  |                                                 |
\*---------------------------------------------------------------------------*/
FoamFile
{
    version     2.0;
    format      ascii;
    class       surfaceScalarField;
    location    "2.89";
    object      phi;
}
// * * * * * * * * * * * * * * * * * * * * * * * * * * * * * * * * * * * * * //

dimensions      [0 3 -1 0 0 0 0];
oriented        oriented;


internalField   nonuniform List<scalar> 
56481
(
6.66702192e-07
-7.53147768e-11
6.66808496e-07
-2.611701e-10
6.66993902e-07
-4.83960217e-10
6.67260325e-07
-7.19827009e-10
6.67598255e-07
-9.27742944e-10
6.67985074e-07
-1.06043545e-09
6.68387986e-07
-1.08208753e-09
6.68770091e-07
-9.80244134e-10
6.69096594e-07
-7.65937324e-10
6.69338926e-07
-4.66140533e-10
6.69477681e-07
-1.11673804e-10
6.69548967e-07
2.46753781e-10
6.69549362e-07
5.83514857e-10
6.69485105e-07
8.63590405e-10
6.69368848e-07
1.0667753e-09
6.69217341e-07
1.1833341e-09
6.69048182e-07
1.21339882e-09
6.688778e-07
1.16488014e-09
6.68720503e-07
1.05050872e-09
6.68587628e-07
8.86772593e-10
6.68486302e-07
6.94875006e-10
6.68417176e-07
5.02390782e-10
6.68372781e-07
3.43804598e-10
6.6834258e-07
2.53045404e-10
6.68304836e-07
2.60021267e-10
6.68230352e-07
3.81507004e-10
6.6808973e-07
6.1566196e-10
6.67859e-07
9.43101133e-10
6.67522982e-07
1.33101358e-09
6.67076623e-07
1.73994068e-09
6.66524439e-07
2.13114247e-09
6.65878537e-07
2.47229735e-09
6.65155948e-07
2.74067222e-09
6.64375989e-07
2.92396545e-09
6.63558193e-07
3.01957383e-09
6.62720894e-07
3.03319108e-09
6.61880244e-07
2.97746589e-09
6.61049269e-07
2.87104731e-09
6.60236676e-07
2.73787696e-09
6.59445412e-07
2.60618978e-09
6.58671346e-07
2.50653749e-09
6.57902783e-07
2.46837791e-09
6.57121528e-07
2.51537758e-09
6.56305741e-07
2.66035451e-09
6.55434129e-07
2.90138455e-09
6.54490337e-07
3.22066615e-09
6.53466312e-07
3.58710594e-09
6.52363719e-07
3.96241226e-09
6.51193157e-07
4.30920981e-09
6.49971511e-07
4.59884677e-09
6.48718286e-07
4.8165599e-09
6.47451971e-07
4.96253791e-09
6.46187361e-07
5.04887539e-09
6.44934373e-07
5.09382832e-09
6.43698371e-07
5.11557645e-09
6.42481547e-07
5.12756435e-09
6.41284658e-07
5.13656749e-09
6.40108473e-07
5.14341219e-09
6.38954564e-07
5.14532169e-09
6.37825409e-07
5.13854412e-09
6.36724053e-07
5.12022186e-09
6.35653616e-07
5.08910475e-09
6.34616908e-07
5.04530649e-09
6.33616255e-07
4.98961554e-09
6.32653497e-07
4.92283628e-09
6.31730089e-07
4.84542669e-09
6.30847219e-07
4.75744406e-09
6.30005892e-07
4.65865926e-09
6.29206979e-07
4.54872027e-09
6.28451245e-07
4.42725512e-09
6.27739372e-07
4.29389969e-09
6.27071991e-07
4.14829841e-09
6.26449722e-07
3.99008922e-09
6.25873231e-07
3.81889423e-09
6.25343287e-07
3.63433697e-09
6.24860852e-07
3.43605644e-09
6.24427249e-07
3.22369515e-09
6.24044567e-07
2.99683512e-09
6.23714888e-07
2.75468199e-09
6.23439149e-07
2.49603561e-09
6.23219161e-07
2.21962493e-09
6.23057038e-07
1.92524969e-09
6.22953424e-07
1.6135854e-09
6.22908425e-07
1.28388366e-09
6.22920746e-07
9.36505986e-10
6.22986728e-07
5.73988797e-10
6.23098807e-07
2.01135735e-10
6.23262535e-07
-1.86955898e-10
6.2351681e-07
-5.77246252e-10
6.23855412e-07
-9.69560829e-10
6.24278225e-07
-1.36990242e-09
6.24784789e-07
-1.77682885e-09
6.25374938e-07
-2.18871537e-09
6.26048485e-07
-2.60394765e-09
6.26804794e-07
-3.01999051e-09
6.2764267e-07
-3.43362867e-09
6.28560272e-07
-3.84130235e-09
6.29554977e-07
-4.23916293e-09
6.3062329e-07
-4.62310646e-09
6.31760811e-07
-4.98887928e-09
6.32962242e-07
-5.33219541e-09
6.34221425e-07
-5.64885316e-09
6.35531404e-07
-5.93488109e-09
6.36884515e-07
-6.18667357e-09
6.3827249e-07
-6.40112839e-09
6.39686589e-07
-6.57574714e-09
6.41117749e-07
-6.70873807e-09
6.42556753e-07
-6.79905608e-09
6.43994405e-07
-6.84644048e-09
6.45421717e-07
-6.85140284e-09
6.46830078e-07
-6.81520003e-09
6.48211416e-07
-6.73976268e-09
6.49558328e-07
-6.62762474e-09
6.50864191e-07
-6.48182532e-09
6.52123235e-07
-6.30578943e-09
6.53330589e-07
-6.10322425e-09
6.54482298e-07
-5.87800486e-09
6.55575315e-07
-5.6340566e-09
6.56607463e-07
-5.3752663e-09
6.57577394e-07
-5.10539557e-09
6.58484515e-07
-4.82800127e-09
6.5932892e-07
-4.54638872e-09
6.60111309e-07
-4.26356523e-09
6.60832904e-07
-3.9822177e-09
6.61495367e-07
-3.70469129e-09
6.62100725e-07
-3.43299338e-09
6.62651289e-07
-3.16879946e-09
6.63149589e-07
-2.9134618e-09
6.63598311e-07
-2.66803423e-09
6.6400025e-07
-2.43329491e-09
6.64358262e-07
-2.2097698e-09
6.64675232e-07
-1.99776636e-09
6.64954033e-07
-1.79740292e-09
6.65197501e-07
-1.60863515e-09
6.65408424e-07
-1.431288e-09
6.65589531e-07
-1.26508379e-09
6.65743478e-07
-1.10967013e-09
6.65872833e-07
-9.64651854e-10
6.65980069e-07
-8.29616603e-10
6.66067554e-07
-7.04156393e-10
6.66137532e-07
-5.87890778e-10
6.66192062e-07
-4.80480113e-10
6.66232946e-07
-3.81628231e-10
6.66261635e-07
-2.91066759e-10
6.66279165e-07
-2.08513217e-10
6.66286189e-07
-1.33590873e-10
6.66283088e-07
-6.57428421e-11
6.66269442e-07
-3.53129608e-12
6.66250965e-07
5.10174525e-11
6.66226956e-07
1.01284251e-10
6.66197418e-07
1.46014241e-10
6.66162623e-07
1.85674729e-10
6.66123074e-07
2.20649549e-10
6.66079354e-07
2.51329078e-10
6.66032042e-07
2.78135851e-10
6.65981685e-07
3.01457774e-10
6.65928786e-07
3.21643868e-10
6.65873798e-07
3.39004754e-10
6.65817128e-07
3.53813561e-10
6.65759139e-07
3.66311378e-10
6.65700151e-07
3.76711518e-10
6.65640445e-07
3.85204218e-10
6.65580264e-07
3.91959937e-10
6.65519817e-07
3.97133951e-10
6.65459283e-07
4.00868199e-10
6.6539882e-07
4.03294007e-10
6.65338562e-07
4.04532951e-10
6.65278628e-07
4.04698045e-10
6.65219124e-07
4.03893534e-10
6.65160141e-07
4.0221585e-10
6.65101763e-07
3.99753825e-10
6.65044063e-07
3.96588216e-10
6.64987106e-07
3.92792456e-10
6.64930951e-07
3.88432808e-10
6.64875647e-07
3.8356802e-10
6.64821237e-07
3.78250357e-10
6.64767757e-07
3.72526184e-10
6.64715236e-07
3.66436139e-10
6.646637e-07
3.60016609e-10
6.6461317e-07
3.53300117e-10
6.64563668e-07
3.46315122e-10
6.64515212e-07
3.39084768e-10
6.64467821e-07
3.31628381e-10
6.64421516e-07
3.23959152e-10
6.64376321e-07
3.16091221e-10
6.64332278e-07
3.07996359e-10
6.64289431e-07
2.99775382e-10
6.64247933e-07
2.90866181e-10
6.64207775e-07
2.83307119e-10
2.67683352e-10
6.66686893e-07
-9.56079031e-11
6.66776235e-07
-3.50512112e-10
6.66949321e-07
-6.57045999e-10
6.67214682e-07
-9.85188405e-10
6.67567926e-07
-1.28098714e-09
6.67987185e-07
-1.47969425e-09
6.68436114e-07
-1.53101671e-09
6.68871866e-07
-1.41599559e-09
6.69253656e-07
-1.14772716e-09
6.69550236e-07
-7.62721267e-10
6.69748871e-07
-3.10308397e-10
6.69830642e-07
1.64982957e-10
6.69807103e-07
6.07053849e-10
6.69698605e-07
9.72088812e-10
6.69528335e-07
1.2370446e-09
6.69319829e-07
1.39184019e-09
6.69095655e-07
1.4375731e-09
6.68876833e-07
1.38370192e-09
6.68681938e-07
1.24540374e-09
6.6852616e-07
1.04255014e-09
6.68419733e-07
8.01301976e-10
6.68365651e-07
5.56473674e-10
6.68358237e-07
3.5121851e-10
6.68379596e-07
2.31685845e-10
6.68402096e-07
2.37521203e-10
6.68392089e-07
3.91513848e-10
6.68313957e-07
6.93794435e-10
6.68136338e-07
1.12072042e-09
6.67837472e-07
1.62987976e-09
6.67408124e-07
2.16928819e-09
6.6685182e-07
2.68744666e-09
6.66182791e-07
3.14132646e-09
6.65422618e-07
3.50084496e-09
6.6459663e-07
3.74995302e-09
6.63730822e-07
3.88538201e-09
6.62849597e-07
3.91441641e-09
6.61974197e-07
3.85286592e-09
6.61121421e-07
3.72382289e-09
6.60302269e-07
3.55702894e-09
6.59520448e-07
3.38801102e-09
6.58771082e-07
3.25590355e-09
6.58040244e-07
3.19921563e-09
6.57305952e-07
3.24966937e-09
6.56540982e-07
3.42532481e-09
6.55717322e-07
3.72504443e-09
6.54811473e-07
4.12651523e-09
6.53809293e-07
4.58928648e-09
6.52708989e-07
5.06271562e-09
6.51521299e-07
5.49689979e-09
6.50266746e-07
5.8534e-09
6.4897083e-07
6.11247561e-09
6.47658646e-07
6.27472272e-09
6.46350499e-07
6.35702153e-09
6.45059641e-07
6.38468685e-09
6.43792357e-07
6.38286078e-09
6.42549876e-07
6.37004514e-09
6.41331032e-07
6.35541087e-09
6.40134622e-07
6.33982238e-09
6.38960787e-07
6.31915696e-09
6.37811303e-07
6.28802843e-09
6.36689089e-07
6.24243562e-09
6.35597432e-07
6.1807613e-09
6.34539338e-07
6.10340071e-09
6.33517204e-07
6.01175007e-09
6.32532798e-07
5.90724177e-09
6.31587415e-07
5.79080994e-09
6.30682054e-07
5.66280465e-09
6.29817559e-07
5.52315504e-09
6.28994679e-07
5.37160014e-09
6.28214101e-07
5.20783275e-09
6.27476465e-07
5.03153536e-09
6.26782392e-07
4.84237167e-09
6.26132525e-07
4.63995633e-09
6.25527586e-07
4.42383358e-09
6.24968433e-07
4.19348965e-09
6.24456126e-07
3.94836322e-09
6.23991982e-07
3.6878391e-09
6.23577582e-07
3.41123589e-09
6.23214512e-07
3.11775113e-09
6.22904064e-07
2.80648403e-09
6.22647027e-07
2.47666229e-09
6.2244427e-07
2.12800687e-09
6.2229685e-07
1.76100508e-09
6.22205866e-07
1.37486792e-09
6.22173948e-07
9.68423871e-10
6.22206409e-07
5.41527311e-10
6.22315388e-07
9.2157397e-11
6.22488986e-07
-3.6055453e-10
6.2273678e-07
-8.25039621e-10
6.23065169e-07
-1.29795038e-09
6.2347659e-07
-1.78132311e-09
6.23974033e-07
-2.27427188e-09
6.24559345e-07
-2.77402733e-09
6.25233311e-07
-3.27791338e-09
6.25996125e-07
-3.78280496e-09
6.26847314e-07
-4.28481768e-09
6.27785546e-07
-4.77953447e-09
6.28808531e-07
-5.26214758e-09
6.29912944e-07
-5.72751986e-09
6.31094375e-07
-6.17031007e-09
6.32347307e-07
-6.58512752e-09
6.33665141e-07
-6.96668668e-09
6.35040252e-07
-7.30999216e-09
6.36464088e-07
-7.61050997e-09
6.37927303e-07
-7.86434342e-09
6.39419922e-07
-8.06836588e-09
6.40931542e-07
-8.22035777e-09
6.42451551e-07
-8.31906555e-09
6.43969365e-07
-8.36425448e-09
6.45474657e-07
-8.35669477e-09
6.46957581e-07
-8.29812355e-09
6.48408965e-07
-8.19114702e-09
6.4982048e-07
-8.03913997e-09
6.51184764e-07
-7.8461095e-09
6.52495508e-07
-7.6165332e-09
6.53747501e-07
-7.35521757e-09
6.54936643e-07
-7.06714601e-09
6.56059912e-07
-6.75732637e-09
6.57115322e-07
-6.43067627e-09
6.58101841e-07
-6.09191459e-09
6.59019305e-07
-5.74546452e-09
6.59868314e-07
-5.39539854e-09
6.60650135e-07
-5.04538584e-09
6.61366588e-07
-4.69867032e-09
6.62019948e-07
-4.35805111e-09
6.62612848e-07
-4.02589409e-09
6.63148195e-07
-3.70414583e-09
6.63629084e-07
-3.39435087e-09
6.64058736e-07
-3.09768647e-09
6.64440435e-07
-2.81499394e-09
6.64777476e-07
-2.54681054e-09
6.65073124e-07
-2.29341494e-09
6.65330588e-07
-2.05486646e-09
6.65552988e-07
-1.83103555e-09
6.65743338e-07
-1.62163782e-09
6.65904522e-07
-1.42626808e-09
6.66039288e-07
-1.24443614e-09
6.66150234e-07
-1.07559753e-09
6.6623979e-07
-9.19172542e-10
6.66310196e-07
-7.7456276e-10
6.66363476e-07
-6.41170402e-10
6.66401417e-07
-5.18421471e-10
6.664256e-07
-4.05810652e-10
6.66437479e-07
-3.02946173e-10
6.66438436e-07
-2.09469901e-10
6.66429787e-07
-1.24942328e-10
6.66412915e-07
-4.88709182e-11
6.66389269e-07
2.01155706e-11
6.66358399e-07
8.18872221e-11
6.66322206e-07
1.37476662e-10
6.66281284e-07
1.86936597e-10
6.66236254e-07
2.30704643e-10
6.66187613e-07
2.69290194e-10
6.6613581e-07
3.03132755e-10
6.66081283e-07
3.32662155e-10
6.66024456e-07
3.58285532e-10
6.65965725e-07
3.80374838e-10
6.65905461e-07
3.99268251e-10
6.65844004e-07
4.15271059e-10
6.65781657e-07
4.28657858e-10
6.65718694e-07
4.39674975e-10
6.65655354e-07
4.48544326e-10
6.65591848e-07
4.55465916e-10
6.6552836e-07
4.60622024e-10
6.65465049e-07
4.64178609e-10
6.65402055e-07
4.6628817e-10
6.65339497e-07
4.67090758e-10
6.6527748e-07
4.6671553e-10
6.65216093e-07
4.65280718e-10
6.65155414e-07
4.62894937e-10
6.6509551e-07
4.59657626e-10
6.65036439e-07
4.5565872e-10
6.64978252e-07
4.50979738e-10
6.64920991e-07
4.45694166e-10
6.64864691e-07
4.39867208e-10
6.64809385e-07
4.33557029e-10
6.64755096e-07
4.26815336e-10
6.64701844e-07
4.19687377e-10
6.64649648e-07
4.12213309e-10
6.6459852e-07
4.04428213e-10
6.64548472e-07
3.96362516e-10
6.64499516e-07
3.88040946e-10
6.64451661e-07
3.79483794e-10
6.64404916e-07
3.7070379e-10
6.6435929e-07
3.61716896e-10
6.64314798e-07
3.52489078e-10
6.64271411e-07
3.43162141e-10
6.64229163e-07
3.3311377e-10
6.64187535e-07
3.24935347e-10
3.0819415e-10
6.66695567e-07
-1.24474547e-10
6.66792768e-07
-4.47713768e-10
6.66972324e-07
-8.36602084e-10
6.67240724e-07
-1.25358814e-09
6.67592143e-07
-1.63240638e-09
6.6800546e-07
-1.89301092e-09
6.6844658e-07
-1.97213645e-09
6.68875255e-07
-1.84467105e-09
6.69252647e-07
-1.52511851e-09
6.69547252e-07
-1.0573263e-09
6.69738926e-07
-5.01983169e-10
6.69830062e-07
7.38471849e-11
6.69827042e-07
6.10073668e-10
6.69740986e-07
1.05814519e-09
6.69590844e-07
1.38718677e-09
6.69399193e-07
1.58349118e-09
6.69188946e-07
1.64782004e-09
6.68981299e-07
1.59134873e-09
6.68794761e-07
1.43194144e-09
6.6864434e-07
1.19297184e-09
6.68540272e-07
9.05369611e-10
6.68486111e-07
6.10634754e-10
6.68476384e-07
3.60945619e-10
6.6849478e-07
2.13289764e-10
6.68514498e-07
2.17802851e-10
6.68501732e-07
4.04279744e-10
6.6842188e-07
7.73646918e-10
6.6824537e-07
1.29723074e-09
6.67951785e-07
1.92346382e-09
6.67532048e-07
2.58902597e-09
6.66988637e-07
3.23085768e-09
6.66334e-07
3.79596334e-09
6.65587757e-07
4.24708808e-09
6.64773544e-07
4.56416562e-09
6.63916171e-07
4.74275521e-09
6.63039394e-07
4.79119297e-09
6.62164265e-07
4.72799553e-09
6.61307747e-07
4.5803403e-09
6.60481304e-07
4.38347207e-09
6.59689339e-07
4.17997612e-09
6.58927802e-07
4.01744106e-09
6.58183606e-07
3.94341135e-09
6.57435582e-07
3.99769291e-09
6.56657323e-07
4.20358428e-09
6.55821629e-07
4.56073812e-09
6.54905637e-07
5.04250715e-09
6.53895361e-07
5.59956227e-09
6.52788474e-07
6.16960351e-09
6.51594551e-07
6.69082247e-09
6.503327e-07
7.11525099e-09
6.49027225e-07
7.41795092e-09
6.47702609e-07
7.59933832e-09
6.46379259e-07
7.68037155e-09
6.45071099e-07
7.69284673e-09
6.43785387e-07
7.66857252e-09
6.42524317e-07
7.6311151e-09
6.41287461e-07
7.59226775e-09
6.40074033e-07
7.55324985e-09
6.38884309e-07
7.50888088e-09
6.37720008e-07
7.45233001e-09
6.36583911e-07
7.37853185e-09
6.35479171e-07
7.28550171e-09
6.34408689e-07
7.17388239e-09
6.33374792e-07
7.0456477e-09
6.32379185e-07
6.90284889e-09
6.31423088e-07
6.74690678e-09
6.30507409e-07
6.57848307e-09
6.29632883e-07
6.39768116e-09
6.28800144e-07
6.20433888e-09
6.28009764e-07
5.9982134e-09
6.27262271e-07
5.77902764e-09
6.26558188e-07
5.54645561e-09
6.25898064e-07
5.30008013e-09
6.25282534e-07
5.03936334e-09
6.24712363e-07
4.7636608e-09
6.24188486e-07
4.47223964e-09
6.23712036e-07
4.16428973e-09
6.23284328e-07
3.83894384e-09
6.22906794e-07
3.4952855e-09
6.22580897e-07
3.13238018e-09
6.22308189e-07
2.74937095e-09
6.22090628e-07
2.34556724e-09
6.2193118e-07
1.92045395e-09
6.21832726e-07
1.47332147e-09
6.21797502e-07
1.00364747e-09
6.21824553e-07
5.14476889e-10
6.21903769e-07
1.29408457e-11
6.22060404e-07
-5.17188699e-10
6.22293279e-07
-1.0579152e-09
6.22608943e-07
-1.61361411e-09
6.2301014e-07
-2.18252009e-09
6.23498953e-07
-2.76308518e-09
6.24077717e-07
-3.35279097e-09
6.24748183e-07
-3.94837943e-09
6.25511307e-07
-4.54592865e-09
6.26367245e-07
-5.14075604e-09
6.27315228e-07
-5.72751779e-09
6.28353416e-07
-6.30033525e-09
6.2947879e-07
-6.85289348e-09
6.30687076e-07
-7.37859667e-09
6.31972706e-07
-7.87075759e-09
6.33328815e-07
-8.32279581e-09
6.34747299e-07
-8.72847558e-09
6.36218917e-07
-9.08212859e-09
6.37733458e-07
-9.37888369e-09
6.39279936e-07
-9.6148445e-09
6.40846848e-07
-9.78726949e-09
6.42422436e-07
-9.89465389e-09
6.43994979e-07
-9.93679755e-09
6.45553071e-07
-9.91478613e-09
6.47085883e-07
-9.83093605e-09
6.48583399e-07
-9.68866227e-09
6.50036597e-07
-9.49233854e-09
6.51437601e-07
-9.2471132e-09
6.52779762e-07
-8.95869462e-09
6.54057707e-07
-8.63316263e-09
6.55267332e-07
-8.27677096e-09
6.56405759e-07
-7.89575337e-09
6.57471262e-07
-7.49617917e-09
6.58463168e-07
-7.08382032e-09
6.5938174e-07
-6.66403663e-09
6.60228055e-07
-6.24171366e-09
6.61003876e-07
-5.82120649e-09
6.61711527e-07
-5.40632124e-09
6.62353776e-07
-5.00030062e-09
6.62933728e-07
-4.60584547e-09
6.6345472e-07
-4.22513858e-09
6.63920242e-07
-3.85987287e-09
6.64333857e-07
-3.51130096e-09
6.64699144e-07
-3.18028064e-09
6.65019651e-07
-2.86731781e-09
6.65298855e-07
-2.572619e-09
6.65540125e-07
-2.29613622e-09
6.65746698e-07
-2.03760873e-09
6.65921669e-07
-1.79660881e-09
6.66067982e-07
-1.57258105e-09
6.66188416e-07
-1.36487032e-09
6.66285579e-07
-1.1727606e-09
6.66361917e-07
-9.95510063e-10
6.66419735e-07
-8.32381638e-10
6.66461232e-07
-6.82667233e-10
6.66488489e-07
-5.45678268e-10
6.66503398e-07
-4.20719194e-10
6.66507528e-07
-3.07076836e-10
6.6650207e-07
-2.04011413e-10
6.66487902e-07
-1.10774017e-10
6.66465673e-07
-2.66423427e-11
6.66436414e-07
4.93748302e-11
6.66400949e-07
1.17352406e-10
6.66360359e-07
1.78066157e-10
6.66315265e-07
2.32030182e-10
6.66266219e-07
2.79751162e-10
6.66213764e-07
3.21745529e-10
6.66158399e-07
3.58497026e-10
6.6610059e-07
3.90471966e-10
6.66040763e-07
4.18111854e-10
6.65979314e-07
4.41824138e-10
6.659166e-07
4.619825e-10
6.65852943e-07
4.78927707e-10
6.65788631e-07
4.92969606e-10
6.65723918e-07
5.04388677e-10
6.65659023e-07
5.1343909e-10
6.65594138e-07
5.20350361e-10
6.65529429e-07
5.25331218e-10
6.65465037e-07
5.28570639e-10
6.65401084e-07
5.30240925e-10
6.65337676e-07
5.30498929e-10
6.65274904e-07
5.29488082e-10
6.65212846e-07
5.27338676e-10
6.65151571e-07
5.24169687e-10
6.65091139e-07
5.20089599e-10
6.65031601e-07
5.151963e-10
6.64973003e-07
5.09578524e-10
6.6491538e-07
5.03316423e-10
6.64858766e-07
4.96481343e-10
6.64803186e-07
4.8913719e-10
6.6474866e-07
4.8134098e-10
6.64695205e-07
4.73142639e-10
6.64642832e-07
4.64586339e-10
6.6459155e-07
4.55710348e-10
6.64541365e-07
4.46547673e-10
6.64492281e-07
4.37125123e-10
6.644443e-07
4.27464683e-10
6.64397423e-07
4.17580141e-10
6.64351651e-07
4.07489402e-10
6.64306985e-07
3.97155246e-10
6.64263418e-07
3.86728882e-10
6.64221027e-07
3.75505164e-10
6.64179808e-07
3.66154181e-10
3.47113082e-10
6.66690969e-07
-1.48743234e-10
6.66784195e-07
-5.40940154e-10
6.66962788e-07
-1.01519455e-09
6.67236844e-07
-1.52764474e-09
6.67602831e-07
-1.99839293e-09
6.68039549e-07
-2.32972937e-09
6.68510584e-07
-2.44317175e-09
6.68971833e-07
-2.30591933e-09
6.69380151e-07
-1.93343666e-09
6.69700983e-07
-1.37815852e-09
6.69913143e-07
-7.14143301e-10
6.70008831e-07
-2.18404718e-11
6.69998012e-07
6.20892924e-10
6.69895557e-07
1.16059986e-09
6.69724205e-07
1.55853907e-09
6.69509358e-07
1.79833779e-09
6.69276722e-07
1.88045578e-09
6.69050432e-07
1.81763889e-09
6.68851813e-07
1.63056064e-09
6.68698165e-07
1.3466198e-09
6.68600991e-07
1.00254376e-09
6.68563501e-07
6.48124443e-10
6.68578412e-07
3.46034867e-10
6.68627569e-07
1.64132772e-10
6.68683163e-07
1.62208457e-10
6.68709698e-07
3.77744653e-10
6.68669009e-07
8.14336267e-10
6.68526554e-07
1.43968554e-09
6.6825752e-07
2.19249757e-09
6.67850487e-07
2.99605956e-09
6.67307715e-07
3.77362971e-09
6.66643087e-07
4.46059154e-09
6.65878773e-07
5.01140138e-09
6.65041576e-07
5.40136266e-09
6.64159668e-07
5.62466315e-09
6.63260046e-07
5.69081573e-09
6.62366584e-07
5.62145755e-09
6.61498368e-07
5.44855636e-09
6.60668025e-07
5.21381451e-09
6.59880068e-07
4.9679335e-09
6.59129572e-07
4.76793626e-09
6.58401763e-07
4.67122078e-09
6.57673083e-07
4.72637288e-09
6.56914133e-07
4.9625342e-09
6.56094343e-07
5.38052853e-09
6.55187589e-07
5.94926072e-09
6.54177424e-07
6.6097278e-09
6.53060429e-07
7.2865984e-09
6.51846666e-07
7.90458511e-09
6.50557049e-07
8.40486791e-09
6.49218451e-07
8.75654892e-09
6.47858047e-07
8.95974291e-09
6.46498528e-07
9.03989053e-09
6.45155399e-07
9.03597511e-09
6.43836734e-07
8.98723735e-09
6.42544908e-07
8.92294123e-09
6.41279274e-07
8.85790175e-09
6.40038673e-07
8.79385143e-09
6.38823021e-07
8.7245327e-09
6.37633785e-07
8.64156626e-09
6.36473601e-07
8.53871595e-09
6.35345535e-07
8.41356707e-09
6.34252417e-07
8.26700033e-09
6.33196471e-07
8.10159433e-09
6.3217926e-07
7.92005965e-09
6.31201827e-07
7.72433934e-09
6.30264881e-07
7.51542937e-09
6.29368946e-07
7.29361653e-09
6.28514449e-07
7.05883551e-09
6.27701765e-07
6.81089753e-09
6.26931243e-07
6.54954951e-09
6.26203244e-07
6.27445484e-09
6.25518184e-07
5.98514043e-09
6.24876586e-07
5.68096087e-09
6.2427913e-07
5.36111663e-09
6.23726687e-07
5.02468241e-09
6.23220344e-07
4.67063318e-09
6.22761404e-07
4.2978841e-09
6.2235137e-07
3.90531975e-09
6.21991922e-07
3.49182786e-09
6.21684926e-07
3.05636675e-09
6.21432462e-07
2.59803102e-09
6.21236797e-07
2.11611961e-09
6.21099947e-07
1.61017141e-09
6.21023528e-07
1.0800664e-09
6.21011701e-07
5.26303472e-10
6.21076803e-07
-5.21608069e-11
6.21211904e-07
-6.52289443e-10
6.21426829e-07
-1.27284097e-09
6.21725298e-07
-1.91208231e-09
6.22111717e-07
-2.56893904e-09
6.2258993e-07
-3.24129906e-09
6.23163228e-07
-3.92608833e-09
6.23834257e-07
-4.61940889e-09
6.24604894e-07
-5.31656562e-09
6.25476125e-07
-6.01198663e-09
6.26447874e-07
-6.69926689e-09
6.27518824e-07
-7.37128498e-09
6.28686261e-07
-8.02033094e-09
6.29945963e-07
-8.63829821e-09
6.31292123e-07
-9.21691816e-09
6.32717343e-07
-9.74801536e-09
6.34212682e-07
-1.02238146e-08
6.35767785e-07
-1.0637232e-08
6.37371077e-07
-1.09821751e-08
6.39010013e-07
-1.12537808e-08
6.40671394e-07
-1.14486503e-08
6.42341703e-07
-1.15649629e-08
6.44007468e-07
-1.16025631e-08
6.45655616e-07
-1.1562934e-08
6.47273799e-07
-1.14491192e-08
6.48850681e-07
-1.1265544e-08
6.50376164e-07
-1.10178219e-08
6.51841557e-07
-1.07125062e-08
6.5323967e-07
-1.03568068e-08
6.54564847e-07
-9.95834013e-09
6.5581295e-07
-9.52487435e-09
6.56981283e-07
-9.0640854e-09
6.5806848e-07
-8.58337703e-09
6.59074381e-07
-8.08972098e-09
6.59999869e-07
-7.58952416e-09
6.60846716e-07
-7.08856106e-09
6.61617426e-07
-6.59191674e-09
6.6231508e-07
-6.10397527e-09
6.62943194e-07
-5.62841486e-09
6.63505594e-07
-5.16824466e-09
6.640063e-07
-4.72584458e-09
6.64449436e-07
-4.30300908e-09
6.64839148e-07
-3.90101293e-09
6.65179537e-07
-3.52066987e-09
6.65474607e-07
-3.16238801e-09
6.65728226e-07
-2.82623737e-09
6.65944097e-07
-2.51200706e-09
6.66125742e-07
-2.21925372e-09
6.66276487e-07
-1.94735403e-09
6.66399455e-07
-1.69554966e-09
6.66497573e-07
-1.4629884e-09
6.66573576e-07
-1.24876282e-09
6.66629993e-07
-1.05192694e-09
6.66669116e-07
-8.71504772e-10
6.66692934e-07
-7.06485847e-10
6.66703116e-07
-5.55859551e-10
6.66701105e-07
-4.18708674e-10
6.66688233e-07
-2.94204748e-10
6.66665781e-07
-1.81559868e-10
6.66634969e-07
-7.9961269e-11
6.66597228e-07
1.10982978e-11
6.66554071e-07
9.25314961e-11
6.66506047e-07
1.65377122e-10
6.66453858e-07
2.30254497e-10
6.66398121e-07
2.8776707e-10
6.6633939e-07
3.38482535e-10
6.66278156e-07
3.82979092e-10
6.66214853e-07
4.21800741e-10
6.66149869e-07
4.55456102e-10
6.66083558e-07
4.84422075e-10
6.66016243e-07
5.09140063e-10
6.6594821e-07
5.3001519e-10
6.6587972e-07
5.47417136e-10
6.65811007e-07
5.61682797e-10
6.65742278e-07
5.73117963e-10
6.65673716e-07
5.82000551e-10
6.65605485e-07
5.88582224e-10
6.65537723e-07
5.93092444e-10
6.65470555e-07
5.95739276e-10
6.65404083e-07
5.96712501e-10
6.65338397e-07
5.96184725e-10
6.65273572e-07
5.94313454e-10
6.65209669e-07
5.91241312e-10
6.65146741e-07
5.87098056e-10
6.65084829e-07
5.82001522e-10
6.65023968e-07
5.76057566e-10
6.64964185e-07
5.69361764e-10
6.64905501e-07
5.62000139e-10
6.64847933e-07
5.5404899e-10
6.64791494e-07
5.45576482e-10
6.64736192e-07
5.36643288e-10
6.64682032e-07
5.27302373e-10
6.64629018e-07
5.17600493e-10
6.6457715e-07
5.07578058e-10
6.64526428e-07
4.97270006e-10
6.64476848e-07
4.86704908e-10
6.64428406e-07
4.7590672e-10
6.64381095e-07
4.64890935e-10
6.64334904e-07
4.53680113e-10
6.64289824e-07
4.42235566e-10
6.64245804e-07
4.30749044e-10
6.6420285e-07
4.18459409e-10
6.64160441e-07
4.08563009e-10
3.88497201e-10
6.66692497e-07
-1.74640521e-10
6.6678892e-07
-6.37362573e-10
6.66972202e-07
-1.19847658e-09
6.67251565e-07
-1.80700753e-09
6.67622727e-07
-2.36955501e-09
6.68064304e-07
-2.77130638e-09
6.68540488e-07
-2.91935622e-09
6.6900824e-07
-2.77367165e-09
6.69425502e-07
-2.35069814e-09
6.69758023e-07
-1.71067936e-09
6.6998438e-07
-9.40500503e-10
6.70098683e-07
-1.36143711e-10
6.70099407e-07
6.20169436e-10
6.70007049e-07
1.25295743e-09
6.69844205e-07
1.72138283e-09
6.69636529e-07
2.00601448e-09
6.69409728e-07
2.10725651e-09
6.69188073e-07
2.03929417e-09
6.6899317e-07
1.82546284e-09
6.68842837e-07
1.4969529e-09
6.68749581e-07
1.09579989e-09
6.68718432e-07
6.79273867e-10
6.68744119e-07
3.20347676e-10
6.68808279e-07
9.99725115e-11
6.6887964e-07
9.08475358e-11
6.68920089e-07
3.37295427e-10
6.68891421e-07
8.43005037e-10
6.68760321e-07
1.5707851e-09
6.68503341e-07
2.44947735e-09
6.68109085e-07
3.39031594e-09
6.67578866e-07
4.30384813e-09
6.66925373e-07
5.11408545e-09
6.66169737e-07
5.76703666e-09
6.65338064e-07
6.2330362e-09
6.64458193e-07
6.50453335e-09
6.63557092e-07
6.59191702e-09
6.62658841e-07
6.51970848e-09
6.61782972e-07
6.32442592e-09
6.60942809e-07
6.05397744e-09
6.60143709e-07
5.76703351e-09
6.593815e-07
5.53014508e-09
6.58641832e-07
5.41088838e-09
6.57901199e-07
5.46700643e-09
6.57129995e-07
5.7337376e-09
6.56297342e-07
6.21318181e-09
6.55376744e-07
6.86985848e-09
6.54351274e-07
7.6351986e-09
6.53216922e-07
8.42095025e-09
6.51983178e-07
9.13832889e-09
6.50670619e-07
9.71742735e-09
6.49306187e-07
1.01209802e-08
6.47917562e-07
1.0348368e-08
6.46528245e-07
1.04292072e-08
6.45154655e-07
1.04095652e-08
6.43805692e-07
1.03362007e-08
6.42484358e-07
1.02442753e-08
6.41190408e-07
1.01518513e-08
6.399229e-07
1.006136e-08
6.38681846e-07
9.96558692e-09
6.37468744e-07
9.85466766e-09
6.36286232e-07
9.72122798e-09
6.35137349e-07
9.56245051e-09
6.34024859e-07
9.37949005e-09
6.32950877e-07
9.17557634e-09
6.31916808e-07
8.95412884e-09
6.30923491e-07
8.71765653e-09
6.29971399e-07
8.46752103e-09
6.29060806e-07
8.20420939e-09
6.28191884e-07
7.92775709e-09
6.27364759e-07
7.63802323e-09
6.26579543e-07
7.33476507e-09
6.25836382e-07
7.01761655e-09
6.25135495e-07
6.68602686e-09
6.24477235e-07
6.33922064e-09
6.2386213e-07
5.97622242e-09
6.23290917e-07
5.59589506e-09
6.22764573e-07
5.19697701e-09
6.22284322e-07
4.77813472e-09
6.21851641e-07
4.3380008e-09
6.2146826e-07
3.87520888e-09
6.21136176e-07
3.38845115e-09
6.20857676e-07
2.87653087e-09
6.20635383e-07
2.33841271e-09
6.20472279e-07
1.77327598e-09
6.20371774e-07
1.18057063e-09
6.20337844e-07
5.60233644e-10
6.20373106e-07
-8.74229396e-11
6.20482583e-07
-7.61766649e-10
6.20671856e-07
-1.4621136e-09
6.20946736e-07
-2.18696193e-09
6.21312325e-07
-2.93452875e-09
6.21773307e-07
-3.70228023e-09
6.2233399e-07
-4.48677199e-09
6.22998163e-07
-5.28358122e-09
6.23768847e-07
-6.08725014e-09
6.24648096e-07
-6.89123533e-09
6.25636774e-07
-7.68794533e-09
6.26734333e-07
-8.46884393e-09
6.27938596e-07
-9.22459364e-09
6.29245584e-07
-9.9452866e-09
6.306494e-07
-1.06207336e-08
6.32142174e-07
-1.12407898e-08
6.33714111e-07
-1.17957517e-08
6.35353622e-07
-1.22767429e-08
6.3704756e-07
-1.26761127e-08
6.38781538e-07
-1.29877592e-08
6.4054033e-07
-1.32074417e-08
6.42308305e-07
-1.33329379e-08
6.44069896e-07
-1.3364154e-08
6.45810049e-07
-1.3303087e-08
6.47514639e-07
-1.31537096e-08
6.49170822e-07
-1.29217272e-08
6.50767309e-07
-1.26143092e-08
6.52294557e-07
-1.22397539e-08
6.53744865e-07
-1.18071145e-08
6.55112395e-07
-1.13258698e-08
6.56393117e-07
-1.08055967e-08
6.57584697e-07
-1.02556659e-08
6.5868634e-07
-9.68502013e-09
6.59698605e-07
-9.10198588e-09
6.60623205e-07
-8.51412334e-09
6.61462801e-07
-7.92815745e-09
6.6222081e-07
-7.34992576e-09
6.62901215e-07
-6.78438074e-09
6.63508402e-07
-6.23560127e-09
6.64047008e-07
-5.70685076e-09
6.64521801e-07
-5.20063766e-09
6.64937571e-07
-4.71877923e-09
6.65299047e-07
-4.26248862e-09
6.6561083e-07
-3.83245294e-09
6.65877347e-07
-3.42890528e-09
6.66102816e-07
-3.05170579e-09
6.66291217e-07
-2.70040879e-09
6.66446285e-07
-2.37432093e-09
6.66571493e-07
-2.07256267e-09
6.66670059e-07
-1.79411585e-09
6.66744933e-07
-1.53786232e-09
6.66798795e-07
-1.30262469e-09
6.66834069e-07
-1.08720088e-09
6.66852964e-07
-8.90400036e-10
6.66857562e-07
-7.11083572e-10
6.66849867e-07
-5.48163985e-10
6.6683172e-07
-4.00562295e-10
6.66804738e-07
-2.6722299e-10
6.66770232e-07
-1.47053546e-10
6.6672946e-07
-3.91894415e-11
6.66682579e-07
5.79795165e-11
6.66630441e-07
1.44669835e-10
6.6657393e-07
2.21888318e-10
6.66513824e-07
2.90360142e-10
6.66450758e-07
3.50832761e-10
6.66385254e-07
4.03986744e-10
6.66317778e-07
4.50454866e-10
6.66248747e-07
4.90831522e-10
6.66178533e-07
5.25670825e-10
6.66107467e-07
5.55487507e-10
6.6603585e-07
5.80757705e-10
6.65963945e-07
6.01919551e-10
6.65891989e-07
6.19373943e-10
6.65820184e-07
6.33487379e-10
6.65748709e-07
6.44593305e-10
6.65677714e-07
6.52995006e-10
6.6560733e-07
6.58966764e-10
6.65537664e-07
6.62757956e-10
6.6546881e-07
6.64593717e-10
6.65400844e-07
6.6467841e-10
6.65333831e-07
6.63196982e-10
6.65267827e-07
6.60317459e-10
6.65202877e-07
6.56191397e-10
6.65139019e-07
6.50956298e-10
6.65076284e-07
6.44736816e-10
6.65014697e-07
6.37644814e-10
6.64954277e-07
6.29781338e-10
6.6489504e-07
6.21237459e-10
6.64836995e-07
6.12094089e-10
6.64780147e-07
6.02423692e-10
6.647245e-07
5.9229091e-10
6.6467005e-07
5.81752226e-10
6.64616793e-07
5.70857526e-10
6.64564721e-07
5.59649899e-10
6.64513824e-07
5.48166625e-10
6.64464091e-07
5.3643829e-10
6.64415507e-07
5.24490861e-10
6.64368056e-07
5.12341729e-10
6.64321719e-07
5.00016958e-10
6.64276478e-07
4.87476725e-10
6.642323e-07
4.74927292e-10
6.64189231e-07
4.61528376e-10
6.64147214e-07
4.50579817e-10
4.28389157e-10
6.66693543e-07
-2.01483455e-10
6.66792607e-07
-7.36426868e-10
6.66980957e-07
-1.38682595e-09
6.67268862e-07
-2.09491317e-09
6.67652773e-07
-2.7534657e-09
6.68111089e-07
-3.22962204e-09
6.68606659e-07
-3.41492643e-09
6.69094575e-07
-3.26158762e-09
6.69530726e-07
-2.78684943e-09
6.69878998e-07
-2.05895119e-09
6.70115634e-07
-1.17713704e-09
6.70230507e-07
-2.51016027e-10
6.70237494e-07
6.13181677e-10
6.70147986e-07
1.3424657e-09
6.69985163e-07
1.88420597e-09
6.6977572e-07
2.21545774e-09
6.69547412e-07
2.33556391e-09