/*--------------------------------*- C++ -*----------------------------------*\
| =========                 |                                                 |
| \\      /  F ield         | OpenFOAM: The Open Source CFD Toolbox           |
|  \\    /   O peration     | Version:  v2012                                 |
|   \\  /    A nd           | Website:  www.openfoam.com                      |
|    \\/     M anipulation  |                                                 |
\*---------------------------------------------------------------------------*/
FoamFile
{
    version     2.0;
    format      ascii;
    class       volVectorField;
    location    "2.89";
    object      U;
}
// * * * * * * * * * * * * * * * * * * * * * * * * * * * * * * * * * * * * * //

dimensions      [0 1 -1 0 0 0 0];


internalField   nonuniform List<vector> 
28416
(
(0.100000924 -7.9403383e-06 0)
(0.100010428 -2.89534897e-05 0)
(0.100031608 -5.4713846e-05 0)
(0.100065771 -8.22277985e-05 0)
(0.100111987 -0.000106319937 0)
(0.100167508 -0.00012104947 0)
(0.100228043 -0.000121965864 0)
(0.100288264 -0.000107614013 0)
(0.100342632 -7.95156322e-05 0)
(0.100386074 -4.11399595e-05 0)
(0.100414538 3.57410222e-06 0)
(0.100429658 5.17692799e-05 0)
(0.100434787 9.70376111e-05 0)
(0.100429769 0.000134050175 0)
(0.100415577 0.00016029855 0)
(0.100394769 0.000174670692 0)
(0.100370047 0.000177257146 0)
(0.100343975 0.00016918932 0)
(0.100318892 0.000152277663 0)
(0.100296758 0.000128847796 0)
(0.100279004 0.000101843039 0)
(0.100266296 7.50067166e-05 0)
(0.100258203 5.28073379e-05 0)
(0.100253296 3.99898617e-05 0)
(0.100249111 4.03083946e-05 0)
(0.100241803 5.55999721e-05 0)
(0.100226731 8.55175473e-05 0)
(0.100199644 0.000127566945 0)
(0.100157517 0.000177516185 0)
(0.100098837 0.000230233136 0)
(0.100023613 0.000280630118 0)
(0.0999331834 0.000324397553 0)
(0.0998298428 0.000358427027 0)
(0.0997164104 0.000380964676 0)
(0.0995958638 0.000391580547 0)
(0.0994710836 0.000391041975 0)
(0.0993446878 0.000381157933 0)
(0.099218902 0.000364625694 0)
(0.0990954083 0.000344869851 0)
(0.0989751422 0.000325829154 0)
(0.0988580609 0.000311636215 0)
(0.0987429741 0.000306160163 0)
(0.0986275621 0.000312437386 0)
(0.0985086759 0.000332082346 0)
(0.0983829035 0.00036482935 0)
(0.0982472639 0.000408382152 0)
(0.098099831 0.000458706652 0)
(0.0979401144 0.000510776211 0)
(0.097769105 0.000559608741 0)
(0.0975889931 0.000601301889 0)
(0.0974026563 0.0006337484 0)
(0.0972130712 0.000656818849 0)
(0.0970228095 0.0006719923 0)
(0.0968337378 0.000681612809 0)
(0.0966469629 0.000688063924 0)
(0.0964629852 0.000693140307 0)
(0.0962819597 0.000697774205 0)
(0.0961039567 0.000702112216 0)
(0.0959291358 0.000705811202 0)
(0.0957578086 0.000708378187 0)
(0.0955904081 0.000709417221 0)
(0.0954274148 0.000708728579 0)
(0.0952692845 0.000706283726 0)
(0.0951164051 0.000702140295 0)
(0.0949690862 0.000696359356 0)
(0.0948275704 0.000688959083 0)
(0.0946920519 0.000679907542 0)
(0.0945626932 0.000669138654 0)
(0.094439634 0.000656572741 0)
(0.0943229966 0.000642130494 0)
(0.094212889 0.000625738275 0)
(0.0941094085 0.000607328009 0)
(0.0940126477 0.000586835896 0)
(0.0939227019 0.000564202544 0)
(0.0938396771 0.000539374958 0)
(0.0937637019 0.000512309432 0)
(0.0936949439 0.000482972914 0)
(0.0936336491 0.000451339232 0)
(0.0935801277 0.000417360399 0)
(0.0935346216 0.000380961087 0)
(0.093497345 0.000342091398 0)
(0.0934685918 0.000300654555 0)
(0.0934485978 0.000256473651 0)
(0.0934374356 0.000209365295 0)
(0.0934349844 0.000159219236 0)
(0.0934410489 0.000106196838 0)
(0.093454828 5.07174201e-05 0)
(0.0934750936 -5.19802148e-06 0)
(0.0935052875 -5.95635688e-05 0)
(0.0935495102 -0.000114126935 0)
(0.0936070049 -0.000169909539 0)
(0.0936767715 -0.0002267769 0)
(0.0937589445 -0.000284463925 0)
(0.0938537258 -0.00034273464 0)
(0.0939610149 -0.000401231602 0)
(0.0940806324 -0.000459494532 0)
(0.0942123672 -0.000517019216 0)
(0.0943558974 -0.000573270032 0)
(0.0945107631 -0.000627680579 0)
(0.094676371 -0.000679662557 0)
(0.0948519933 -0.000728619493 0)
(0.0950367695 -0.000773963495 0)
(0.0952297131 -0.000815135122 0)
(0.0954297245 -0.000851624421 0)
(0.0956356049 -0.000882990468 0)
(0.0958460741 -0.000908877505 0)
(0.0960597914 -0.000929026636 0)
(0.0962753801 -0.000943282831 0)
(0.0964914527 -0.000951597466 0)
(0.0967066395 -0.000954026945 0)
(0.0969196145 -0.000950727909 0)
(0.0971291213 -0.000941949477 0)
(0.0973339948 -0.00092802292 0)
(0.0975331799 -0.000909349205 0)
(0.0977257447 -0.000886384984 0)
(0.0979108897 -0.000859627699 0)
(0.0980879528 -0.000829600482 0)
(0.0982564092 -0.000796837591 0)
(0.0984158684 -0.000761870942 0)
(0.0985660678 -0.000725218174 0)
(0.0987068641 -0.000687372583 0)
(0.0988382226 -0.000648795011 0)
(0.0989602055 -0.000609907686 0)
(0.0990729596 -0.000571089937 0)
(0.0991767043 -0.000532675696 0)
(0.0992717189 -0.000494952662 0)
(0.0993583314 -0.000458162871 0)
(0.0994369072 -0.000422504236 0)
(0.0995078392 -0.000388132527 0)
(0.0995715397 -0.000355163834 0)
(0.0996284343 -0.000323678087 0)
(0.0996789552 -0.00029372368 0)
(0.0997235361 -0.000265322001 0)
(0.0997626055 -0.000238470822 0)
(0.0997965849 -0.000213147317 0)
(0.0998258885 -0.000189312498 0)
(0.0998509214 -0.000166916937 0)
(0.0998720762 -0.000145905416 0)
(0.0998897306 -0.000126220128 0)
(0.0999042477 -0.000107805114 0)
(0.0999159744 -9.06127588e-05 0)
(0.0999252365 -7.4610435e-05 0)
(0.0999323288 -5.97855811e-05 0)
(0.099937503 -4.61454963e-05 0)
(0.0999409495 -3.37043943e-05 0)
(0.0999427885 -2.24537338e-05 0)
(0.0999430699 -1.23348035e-05 0)
(0.0999417389 -3.19433943e-06 0)
(0.0999392261 5.27537641e-06 0)
(0.0999360264 1.28955848e-05 0)
(0.0999320353 1.96226663e-05 0)
(0.0999271883 2.55534694e-05 0)
(0.0999215842 3.07761391e-05 0)
(0.099915318 3.53643563e-05 0)
(0.0999084699 3.93876287e-05 0)
(0.0999011244 4.29067843e-05 0)
(0.0998933619 4.59731053e-05 0)
(0.099885254 4.86308314e-05 0)
(0.0998768649 5.09185931e-05 0)
(0.0998682524 5.286999e-05 0)
(0.0998594676 5.45142777e-05 0)
(0.0998505557 5.58771811e-05 0)
(0.0998415555 5.69817221e-05 0)
(0.099832501 5.78489575e-05 0)
(0.0998234211 5.8498524e-05 0)
(0.0998143408 5.89489578e-05 0)
(0.0998052819 5.92178302e-05 0)
(0.0997962633 5.93217691e-05 0)
(0.0997873017 5.92764287e-05 0)
(0.0997784118 5.90964402e-05 0)
(0.0997696068 5.87953595e-05 0)
(0.0997608983 5.83856181e-05 0)
(0.0997522967 5.7878483e-05 0)
(0.0997438113 5.72840369e-05 0)
(0.09973545 5.66111928e-05 0)
(0.09972722 5.58677508e-05 0)
(0.099719127 5.50605017e-05 0)
(0.099711176 5.41953725e-05 0)
(0.0997033709 5.32775923e-05 0)
(0.0996957152 5.23118502e-05 0)
(0.0996882122 5.13023065e-05 0)
(0.0996808647 5.02525639e-05 0)
(0.0996736762 4.9165811e-05 0)
(0.0996666464 4.80445374e-05 0)
(0.0996597903 4.68916423e-05 0)
(0.0996530726 4.5704271e-05 0)
(0.0996466408 4.44988313e-05 0)
(0.0996400347 4.31955564e-05 0)
(0.0996349859 4.21045209e-05 0)
(0.0996261163 3.98124104e-05 0)
(0.100000491 -1.58465309e-05 0)
(0.100007442 -5.7007003e-05 0)
(0.100025681 -0.00010639145 0)
(0.10005834 -0.00015886175 0)
(0.100105553 -0.000205562081 0)
(0.100164792 -0.000236143737 0)
(0.100231401 -0.000242707338 0)
(0.100299311 -0.000222418929 0)
(0.100362026 -0.000177574007 0)
(0.100413837 -0.000114112098 0)
(0.100451446 -3.95970911e-05 0)
(0.100472618 3.84187364e-05 0)
(0.100476443 0.000110807435 0)
(0.100465553 0.00017081176 0)
(0.100443758 0.000214353923 0)
(0.100414476 0.000239575994 0)
(0.100381171 0.000246630259 0)
(0.100347177 0.000237170552 0)
(0.100315489 0.000213802904 0)
(0.100288675 0.000179893321 0)
(0.100268721 0.000139808433 0)
(0.100256722 9.9290683e-05 0)
(0.100252545 6.54343653e-05 0)
(0.100254445 4.59198523e-05 0)
(0.100258929 4.71862719e-05 0)
(0.100261215 7.2726991e-05 0)
(0.100255903 0.000122213626 0)
(0.100237757 0.000191555841 0)
(0.100202617 0.000273769902 0)
(0.100148097 0.000360447895 0)
(0.100073812 0.000443359275 0)
(0.0999812044 0.0005157013 0)
(0.0998731011 0.000572775085 0)
(0.0997531515 0.00061212244 0)
(0.0996253058 0.000633303522 0)
(0.099493413 0.000637538715 0)
(0.0993609473 0.0006273969 0)
(0.0992308103 0.000606612077 0)
(0.0991051422 0.000579990049 0)
(0.0989851028 0.000553267597 0)
(0.0988706432 0.000532749651 0)
(0.0987603479 0.00052460658 0)
(0.0986514533 0.00053386112 0)
(0.0985401276 0.000563277725 0)
(0.0984220335 0.000612500727 0)
(0.0982931013 0.000677796854 0)
(0.0981503466 0.000752611652 0)
(0.0979925087 0.000828884663 0)
(0.0978203112 0.000898788035 0)
(0.0976362534 0.000956380065 0)
(0.0974439958 0.000998677741 0)
(0.0972475306 0.00102585176 0)
(0.0970503943 0.00104055689 0)
(0.0968551418 0.00104670516 0)
(0.0966631912 0.00104814904 0)
(0.0964750081 0.00104770808 0)
(0.0962904937 0.00104677632 0)
(0.0961093957 0.00104548995 0)
(0.0959316044 0.00104323537 0)
(0.0957572719 0.001039211 0)
(0.0955867791 0.00103282296 0)
(0.0954206213 0.00102383178 0)
(0.0952592894 0.00101229495 0)
(0.0951031941 0.000998415301 0)
(0.0949526443 0.000982398241 0)
(0.0948078623 0.000964373035 0)
(0.0946690141 0.00094438039 0)
(0.0945362345 0.000922398589 0)
(0.094409642 0.000898376645 0)
(0.0942893441 0.000872255886 0)
(0.09417544 0.000843976805 0)
(0.0940680234 0.000813477046 0)
(0.0939671877 0.000780687708 0)
(0.0938730339 0.000745532152 0)
(0.0937856788 0.000707927665 0)
(0.0937052647 0.000667787914 0)
(0.0936319675 0.000625022382 0)
(0.093566002 0.000579528378 0)
(0.0935076068 0.000531156499 0)
(0.0934570059 0.000479709847 0)
(0.0934143735 0.000425014747 0)
(0.0933798453 0.000366883186 0)
(0.0933535492 0.00030510531 0)
(0.0933356297 0.000239586161 0)
(0.0933263575 0.000170425452 0)
(0.0933261371 9.7994012e-05 0)
(0.0933363345 2.28119515e-05 0)
(0.0933576776 -5.48295449e-05 0)
(0.0933894033 -0.000132814193 0)
(0.0934322148 -0.000211808271 0)
(0.0934875022 -0.000292473118 0)
(0.0935556575 -0.000374549525 0)
(0.0936368279 -0.000457601838 0)
(0.0937312405 -0.000541237685 0)
(0.0938390056 -0.000624949142 0)
(0.0939600911 -0.000708094717 0)
(0.0940943606 -0.000789952385 0)
(0.0942415501 -0.000869738771 0)
(0.0944012411 -0.000946619739 0)
(0.0945728537 -0.00101973218 0)
(0.0947556432 -0.00108820981 0)
(0.0949486998 -0.00115120882 0)
(0.0951509541 -0.00120793455 0)
(0.095361189 -0.00125766813 0)
(0.0955780571 -0.00129979168 0)
(0.0958001033 -0.00133381025 0)
(0.096025792 -0.00135936953 0)
(0.0962535395 -0.0013762681 0)
(0.0964817479 -0.0013844635 0)
(0.0967088409 -0.0013840718 0)
(0.0969332983 -0.00137536084 0)
(0.0971536872 -0.00135873784 0)
(0.0973686899 -0.0013347321 0)
(0.0975771255 -0.00130397431 0)
(0.097777966 -0.00126717354 0)
(0.0979703463 -0.00122509339 0)
(0.098153568 -0.00117852842 0)
(0.0983270981 -0.00112828196 0)
(0.0984905629 -0.00107514608 0)
(0.0986437387 -0.00101988419 0)
(0.098786539 -0.000963216899 0)
(0.0989189999 -0.000905810848 0)
(0.0990412651 -0.000848270825 0)
(0.0991535697 -0.000791134721 0)
(0.0992562243 -0.000734871133 0)
(0.0993496004 -0.000679879207 0)
(0.0994341161 -0.000626490278 0)
(0.0995102243 -0.000574970967 0)
(0.0995784012 -0.000525527326 0)
(0.0996391368 -0.000478309832 0)
(0.0996929259 -0.000433419073 0)
(0.0997402619 -0.000390911755 0)
(0.0997816313 -0.000350806817 0)
(0.0998175103 -0.000313091513 0)
(0.0998483598 -0.000277727194 0)
(0.0998746224 -0.000244654909 0)
(0.0998967205 -0.000213801642 0)
(0.0999150557 -0.000185086997 0)
(0.0999300063 -0.00015842852 0)
(0.099941924 -0.000133745144 0)
(0.0999511299 -0.000110959905 0)
(0.0999579108 -9.00000055e-05 0)
(0.0999625172 -7.07919163e-05 0)
(0.0999651719 -5.32562819e-05 0)
(0.0999660836 -3.73074712e-05 0)
(0.0999654532 -2.28502794e-05 0)
(0.0999634918 -9.77232774e-06 0)
(0.0999604283 2.0661561e-06 0)
(0.099956314 1.2920252e-05 0)
(0.0999512441 2.26906735e-05 0)
(0.0999454335 3.13476081e-05 0)
(0.0999389696 3.89898824e-05 0)
(0.0999319252 4.57114222e-05 0)
(0.0999243743 5.15949843e-05 0)
(0.0999163829 5.67229686e-05 0)
(0.0999080153 6.11708703e-05 0)
(0.0998993334 6.50051309e-05 0)
(0.0998903951 6.82851261e-05 0)
(0.0998812537 7.10642662e-05 0)
(0.0998719573 7.33904345e-05 0)
(0.0998625491 7.53065543e-05 0)
(0.0998530677 7.68511911e-05 0)
(0.0998435467 7.80591143e-05 0)
(0.0998340155 7.89618118e-05 0)
(0.0998244999 7.95879359e-05 0)
(0.0998150221 7.99636619e-05 0)
(0.0998056014 8.01129716e-05 0)
(0.0997962546 8.00578715e-05 0)
(0.099786996 7.98185632e-05 0)
(0.0997778383 7.94135736e-05 0)
(0.0997687922 7.88598552e-05 0)
(0.099759867 7.81728656e-05 0)
(0.0997510709 7.73666352e-05 0)
(0.0997424107 7.64538312e-05 0)
(0.0997338924 7.54458293e-05 0)
(0.0997255209 7.43527975e-05 0)
(0.0997173004 7.31837922e-05 0)
(0.0997092342 7.19468703e-05 0)
(0.0997013251 7.06491979e-05 0)
(0.0996935753 6.92971351e-05 0)
(0.0996859868 6.78961546e-05 0)
(0.0996785611 6.64507213e-05 0)
(0.0996713005 6.49644251e-05 0)
(0.0996642031 6.34394823e-05 0)
(0.0996572825 6.18784807e-05 0)
(0.0996504976 6.02753257e-05 0)
(0.0996439982 5.86519319e-05 0)
(0.0996372786 5.68982089e-05 0)
(0.0996321475 5.54404819e-05 0)
(0.0996227992 5.24502889e-05 0)
(0.100000746 -1.86455223e-05 0)
(0.100009061 -6.71763516e-05 0)
(0.100028756 -0.000125313319 0)
(0.100062261 -0.000187532658 0)
(0.100109513 -0.000243921004 0)
(0.100168084 -0.000282451838 0)
(0.100233573 -0.000293650317 0)
(0.100300274 -0.000273807406 0)
(0.10036208 -0.00022516826 0)
(0.100413485 -0.000154385188 0)
(0.100450368 -7.06874243e-05 0)
(0.10047136 1.5395658e-05 0)
(0.100477531 9.50739399e-05 0)
(0.100470288 0.000161876721 0)
(0.100451741 0.000211019775 0)
(0.100425193 0.000240274025 0)
(0.100394194 0.000249697602 0)
(0.100362085 0.000240961716 0)
(0.100331869 0.000216786534 0)
(0.100306097 0.000180749996 0)
(0.100286724 0.000137575411 0)
(0.10027486 9.35701406e-05 0)
(0.10027045 5.66021891e-05 0)
(0.100271926 3.50786973e-05 0)
(0.100275987 3.63113405e-05 0)
(0.100277854 6.47930783e-05 0)
(0.100272145 0.00012083405 0)
(0.100253871 0.000200228027 0)
(0.100219172 0.00029520924 0)
(0.100165787 0.000396176031 0)
(0.100093246 0.000493540932 0)
(0.100002758 0.000579220715 0)
(0.0998968496 0.000647503667 0)
(0.0997788836 0.0006952879 0)
(0.0996525903 0.000721868528 0)
(0.0995216832 0.000728524922 0)
(0.0993895761 0.000718133524 0)
(0.0992591691 0.000694928307 0)
(0.0991326498 0.000664385561 0)
(0.099011269 0.000633078408 0)
(0.0988951002 0.000608292906 0)
(0.0987828583 0.000597256455 0)
(0.0986719023 0.000605989415 0)
(0.0985585184 0.000638000685 0)
(0.0984384941 0.000693217777 0)
(0.0983078804 0.000767576758 0)
(0.0981637656 0.000853553572 0)
(0.0980048646 0.000941628285 0)
(0.0978317632 0.00102233759 0)
(0.0976467485 0.00108832463 0)
(0.0974532663 0.00113575658 0)
(0.0972551633 0.00116468723 0)
(0.0970559389 0.00117831946 0)
(0.0968582152 0.00118151419 0)
(0.0966635464 0.0011791283 0)
(0.0964725542 0.00117474982 0)
(0.0962852735 0.00117016093 0)
(0.0961015394 0.00116552618 0)
(0.0959212807 0.00116003526 0)
(0.0957446504 0.00115263082 0)
(0.0955720111 0.00114252938 0)
(0.0954038353 0.00112941949 0)
(0.0952405958 0.00111339011 0)
(0.0950826911 0.00109473093 0)
(0.0949304207 0.00107374179 0)
(0.0947839972 0.00105062555 0)
(0.0946435742 0.00102546959 0)
(0.0945092714 0.000998279343 0)
(0.09438119 0.000969021958 0)
(0.0942594202 0.000937654606 0)
(0.0941440439 0.000904132863 0)
(0.0940351391 0.000868406785 0)
(0.0939327847 0.00083041438 0)
(0.0938370683 0.000790078223 0)
(0.0937480934 0.000747305967 0)
(0.093665986 0.000701992562 0)
(0.0935909003 0.000654021462 0)
(0.0935230192 0.000603263413 0)
(0.0934625501 0.000549573695 0)
(0.0934097133 0.000492802477 0)
(0.0933647395 0.000432821995 0)
(0.093327887 0.000369566036 0)
(0.093299504 0.000303049712 0)
(0.0932800239 0.000233380922 0)
(0.0932698682 0.000160748694 0)
(0.0932693313 8.52736436e-05 0)
(0.0932774672 7.06555766e-06 0)
(0.0932947701 -7.38841225e-05 0)
(0.0933235132 -0.000157565757 0)
(0.0933645783 -0.000243290543 0)
(0.0934182914 -0.000330894177 0)
(0.0934849677 -0.000420234169 0)
(0.0935649579 -0.000510930387 0)
(0.0936585965 -0.000602490729 0)
(0.0937660977 -0.000694326569 0)
(0.0938875404 -0.000785729088 0)
(0.0940228802 -0.000875887446 0)
(0.0941719281 -0.000963910963 0)
(0.0943343233 -0.00104884479 0)
(0.0945095203 -0.00112969097 0)
(0.0946967816 -0.00120543619 0)
(0.094895174 -0.00127508346 0)
(0.095103572 -0.00133768635 0)
(0.0953206706 -0.00139238432 0)
(0.0955450046 -0.00143843634 0)
(0.0957749766 -0.00147525011 0)
(0.0960088913 -0.00150240526 0)
(0.0962449945 -0.00151966868 0)
(0.0964815154 -0.00152700159 0)
(0.09671671 -0.00152455797 0)
(0.0969489019 -0.00151267503 0)
(0.0971765204 -0.00149185647 0)
(0.0973981314 -0.00146275013 0)
(0.0976124634 -0.00142612118 0)
(0.0978184242 -0.00138282303 0)
(0.0980151112 -0.00133376736 0)
(0.098201814 -0.0012798949 0)
(0.0983780108 -0.0012221484 0)
(0.0985433591 -0.00116144869 0)
(0.0986976825 -0.00109867447 0)
(0.0988409542 -0.00103464624 0)
(0.0989732792 -0.000970114398 0)
(0.0990948747 -0.000905751189 0)
(0.0992060513 -0.000842146291 0)
(0.0993071952 -0.000779805522 0)
(0.0993987503 -0.000719152179 0)
(0.0994812034 -0.000660530436 0)
(0.0995550693 -0.000604210412 0)
(0.0996208793 -0.000550394325 0)
(0.0996791708 -0.000499223273 0)
(0.0997304803 -0.000450784355 0)
(0.0997753361 -0.000405117921 0)
(0.099814253 -0.000362224879 0)
(0.0998477268 -0.000322073796 0)
(0.0998762326 -0.000284607205 0)
(0.0999002244 -0.000249747372 0)
(0.0999201321 -0.000217401186 0)
(0.0999363589 -0.000187463815 0)
(0.0999492832 -0.000159822019 0)
(0.0999592612 -0.000134356209 0)
(0.0999666299 -0.000110942043 0)
(0.0999717107 -8.94569791e-05 0)
(0.0999748055 -6.97891878e-05 0)
(0.0999761804 -5.18374586e-05 0)
(0.0999760455 -3.55055999e-05 0)
(0.099974553 -2.07009737e-05 0)
(0.0999718039 -7.34200441e-06 0)
(0.0999679045 4.64787561e-06 0)
(0.0999630052 1.53606629e-05 0)
(0.0999572703 2.49661286e-05 0)
(0.0999508235 3.35334805e-05 0)
(0.099943743 4.11317514e-05 0)
(0.0999361093 4.78368792e-05 0)
(0.0999280041 5.37211455e-05 0)
(0.0999194991 5.88557653e-05 0)
(0.0999106605 6.33092754e-05 0)
(0.0999015502 6.7145418e-05 0)
(0.0998922248 7.0422656e-05 0)
(0.0998827353 7.31941263e-05 0)
(0.0998731272 7.55078273e-05 0)
(0.0998634412 7.74070383e-05 0)
(0.0998537126 7.89308426e-05 0)
(0.0998439724 8.01146504e-05 0)
(0.099834247 8.09906816e-05 0)
(0.0998245593 8.15883796e-05 0)
(0.0998149291 8.19347396e-05 0)
(0.0998053733 8.20545544e-05 0)
(0.0997959065 8.1970593e-05 0)
(0.0997865414 8.17037316e-05 0)
(0.0997772889 8.12730536e-05 0)
(0.0997681588 8.06959332e-05 0)
(0.0997591592 7.9988111e-05 0)
(0.0997502974 7.91637686e-05 0)
(0.0997415795 7.82356077e-05 0)
(0.0997330107 7.72149395e-05 0)
(0.0997245952 7.61117853e-05 0)
(0.0997163366 7.49349863e-05 0)
(0.0997082375 7.36923186e-05 0)
(0.0997003 7.23905999e-05 0)
(0.0996925256 7.10357693e-05 0)
(0.0996849155 6.96329187e-05 0)
(0.09967747 6.81862643e-05 0)
(0.0996701908 6.6699248e-05 0)
(0.0996630744 6.5173983e-05 0)
(0.0996561331 6.36132717e-05 0)
(0.0996493255 6.2011167e-05 0)
(0.099642798 6.03918418e-05 0)
(0.0996360638 5.86461923e-05 0)
(0.0996309078 5.72074902e-05 0)
(0.0996217631 5.4273341e-05 0)
(0.100000603 -2.36103575e-05 0)
(0.100008193 -8.57633969e-05 0)
(0.100027269 -0.000160898922 0)
(0.100060949 -0.000241856372 0)
(0.100109654 -0.000315762645 0)
(0.100171121 -0.000367002877 0)
(0.100240744 -0.000383169948 0)
(0.100312304 -0.000359257312 0)
(0.10037903 -0.000298000912 0)
(0.100434814 -0.000207916736 0)
(0.100475295 -0.000100800932 0)
(0.100498311 1.08341566e-05 0)
(0.100504191 0.00011516723 0)
(0.100494938 0.000202174057 0)
(0.100473461 0.000265971088 0)
(0.100443494 0.00030407589 0)
(0.100408968 0.000316661935 0)
(0.10037367 0.000305863994 0)
(0.100341047 0.000275091339 0)
(0.100314048 0.000228812277 0)
(0.100294919 0.000172969845 0)
(0.100284884 0.000115577982 0)
(0.100283697 6.67431146e-05 0)
(0.100289375 3.75475338e-05 0)
(0.10029839 3.77259366e-05 0)
(0.100305956 7.30713835e-05 0)
(0.100306345 0.000143800591 0)
(0.100293779 0.000244430039 0)
(0.100263605 0.000365002435 0)
(0.100213056 0.000493251655 0)
(0.100141487 0.000616972023 0)
(0.100050218 0.000725929436 0)
(0.0999420926 0.000812954701 0)
(0.0998209207 0.000874206058 0)
(0.0996909347 0.000908844094 0)
(0.0995563544 0.000918464166 0)
(0.0994210597 0.000906590267 0)
(0.099288335 0.000878390345 0)
(0.0991606241 0.000840579424 0)
(0.0990392724 0.0008012998 0)
(0.0989242863 0.000769685084 0)
(0.0988141804 0.000754891813 0)
(0.0987060065 0.000764613044 0)
(0.0985956456 0.000803379074 0)
(0.0984783951 0.000871168397 0)
(0.0983497836 0.000962883884 0)
(0.0982064427 0.00106904626 0)
(0.098046804 0.00117767069 0)
(0.09787141 0.00127686692 0)
(0.0976827376 0.00135741165 0)
(0.097484586 0.0014145137 0)
(0.0972812197 0.00144825743 0)
(0.0970765272 0.00146267703 0)
(0.096873427 0.00146389346 0)
(0.0966736503 0.00145803609 0)
(0.0964778857 0.00144965532 0)
(0.0962861551 0.00144104065 0)
(0.0960982412 0.00143244611 0)
(0.0959140125 0.00142288946 0)
(0.0957335752 0.00141106487 0)
(0.095557263 0.00139600194 0)
(0.0953855334 0.00137732191 0)
(0.0952188491 0.00135515346 0)
(0.0950575963 0.00132988416 0)
(0.0949020564 0.00130191945 0)
(0.0947524177 0.00127154468 0)
(0.0946088052 0.00123889801 0)
(0.0944713072 0.00120400998 0)
(0.0943399936 0.00116685714 0)
(0.0942149238 0.00112739756 0)
(0.0940961514 0.00108558166 0)
(0.0939837287 0.00104134772 0)
(0.0938777125 0.000994613983 0)
(0.0937781716 0.000945274691 0)
(0.093685195 0.000893201355 0)
(0.0935988978 0.000838246779 0)
(0.0935194261 0.000780249443 0)
(0.0934469589 0.000719037238 0)
(0.0933817072 0.000654431375 0)
(0.093323911 0.000586254144 0)
(0.0932738374 0.000514342429 0)
(0.0932317828 0.000438558387 0)
(0.0931980717 0.000358790729 0)
(0.0931730439 0.000274915282 0)
(0.093156978 0.000186803066 0)
(0.0931501827 9.4374395e-05 0)
(0.0931539134 -2.26207767e-06 0)
(0.0931688272 -0.000101915401 0)
(0.0931949899 -0.000204423911 0)
(0.0932332976 -0.000309842063 0)
(0.0932845052 -0.000417972254 0)
(0.0933492292 -0.000528426754 0)
(0.0934279908 -0.000640673079 0)
(0.0935212352 -0.000754071476 0)
(0.0936293103 -0.000867862397 0)
(0.0937524359 -0.000981147906 0)
(0.0938906847 -0.00109290264 0)
(0.0940439582 -0.00120199497 0)
(0.0942119591 -0.00130720932 0)
(0.0943941701 -0.0014072754 0)
(0.0945898406 -0.00150090475 0)
(0.0947979796 -0.00158683147 0)
(0.0950173588 -0.00166385557 0)
(0.0952465256 -0.00173088718 0)
(0.0954838279 -0.00178698899 0)
(0.0957274472 -0.00183141423 0)
(0.0959754417 -0.00186363738 0)
(0.0962257956 -0.00188337539 0)
(0.0964764725 -0.0018905978 0)
(0.0967254696 -0.00188552525 0)
(0.0969708694 -0.00186861644 0)
(0.0972108865 -0.00184054518 0)
(0.0974439062 -0.00180216928 0)
(0.0976685142 -0.00175449391 0)
(0.0978835166 -0.00169863195 0)
(0.0980879495 -0.00163576379 0)
(0.0982810797 -0.00156709886 0)
(0.0984623971 -0.00149384052 0)
(0.0986316012 -0.00141715563 0)
(0.0987885823 -0.00133814937 0)
(0.0989333998 -0.00125784588 0)
(0.0990662584 -0.00117717434 0)
(0.0991874843 -0.00109696024 0)
(0.0992975013 -0.00101792126 0)
(0.0993968091 -0.000940667109 0)
(0.0994859627 -0.000865702509 0)
(0.099565554 -0.000793432556 0)
(0.0996361973 -0.000724169871 0)
(0.0996985154 -0.000658142793 0)
(0.099753129 -0.000595504176 0)
(0.0998006479 -0.000536340734 0)
(0.0998416637 -0.000480682581 0)
(0.099876745 -0.000428512143 0)
(0.0999064344 -0.000379772151 0)
(0.0999312462 -0.000334373176 0)
(0.0999516638 -0.000292201288 0)
(0.0999681408 -0.00025312527 0)
(0.099981102 -0.000217002506 0)
(0.0999909429 -0.000183684614 0)
(0.099998028 -0.000153025266 0)
(0.100002682 -0.000124887059 0)
(0.100005178 -9.91414211e-05 0)
(0.100005741 -7.56629424e-05 0)
(0.100004576 -5.43279559e-05 0)
(0.10000188 -3.50139278e-05 0)
(0.0999978354 -1.75916792e-05 0)
(0.0999926369 -1.90091848e-06 0)
(0.0999865279 1.21905239e-05 0)
(0.09997967 2.47951752e-05 0)
(0.0999721328 3.6033129e-05 0)
(0.0999640142 4.60014865e-05 0)
(0.0999554092 5.47993149e-05 0)
(0.0999463943 6.25276293e-05 0)
(0.099937038 6.92800708e-05 0)
(0.0999274021 7.51443629e-05 0)
(0.099917542 8.02028412e-05 0)
(0.0999075082 8.45314623e-05 0)
(0.0998973463 8.81998269e-05 0)
(0.0998870976 9.12715347e-05 0)
(0.0998767988 9.38044534e-05 0)
(0.099866483 9.58510605e-05 0)
(0.0998561795 9.74588744e-05 0)
(0.0998459141 9.86709089e-05 0)
(0.0998357095 9.95261206e-05 0)
(0.0998255853 0.000100059833 0)
(0.0998155585 0.000100304123 0)
(0.0998056435 0.000100288154 0)
(0.0997958526 0.000100038475 0)
(0.0997861957 9.95792577e-05 0)
(0.0997766816 9.89325091e-05 0)
(0.0997673171 9.81182407e-05 0)
(0.0997581079 9.71546173e-05 0)
(0.0997490586 9.6058085e-05 0)
(0.0997401729 9.48434853e-05 0)
(0.0997314534 9.35241614e-05 0)
(0.0997229025 9.21120586e-05 0)
(0.0997145216 9.06178192e-05 0)
(0.0997063118 8.90508687e-05 0)
(0.0996982737 8.74194913e-05 0)
(0.0996904075 8.57308831e-05 0)
(0.0996827134 8.39911865e-05 0)
(0.0996751907 8.22054718e-05 0)
(0.0996678399 8.03778776e-05 0)
(0.0996606565 7.85109863e-05 0)
(0.0996536519 7.66084102e-05 0)
(0.0996467809 7.4663401e-05 0)
(0.0996401926 7.27062887e-05 0)
(0.0996333678 7.06063977e-05 0)
(0.0996281485 6.88866966e-05 0)
(0.0996186129 6.53861502e-05 0)
(0.100000657 -2.797531e-05 0)
(0.100008604 -0.000101727471 0)
(0.100028293 -0.000190942581 0)
(0.100062759 -0.000287449666 0)
(0.100112285 -0.000376415778 0)
(0.100174503 -0.000439669649 0)
(0.100244836 -0.00046254101 0)
(0.100317219 -0.000438754336 0)
(0.100385069 -0.000370991645 0)
(0.100442388 -0.000268855946 0)
(0.100484862 -0.000146139047 0)
(0.100510489 -1.80611652e-05 0)
(0.100518694 0.000101327633 0)
(0.100510982 0.000201499154 0)
(0.10049087 0.000275643533 0)
(0.100462096 0.000320628109 0)
(0.100428542 0.000336498608 0)
(0.100394021 0.000325546395 0)
(0.100362019 0.000291520916 0)
(0.100335537 0.000239423102 0)
(0.100316908 0.000175985585 0)
(0.100307519 0.000110381762 0)
(0.100307494 5.42036678e-05 0)
(0.100315184 2.00655672e-05 0)
(0.100326748 1.92544188e-05 0)
(0.100336653 5.88809878e-05 0)
(0.100338893 0.000139664839 0)
(0.100327973 0.000255686351 0)
(0.100299532 0.000395641302 0)
(0.100250873 0.000545336429 0)
(0.100181247 0.000690508207 0)
(0.100091798 0.00081908977 0)
(0.0999851904 0.00092253009 0)
(0.099865101 0.00099615048 0)
(0.0997356872 0.00103879325 0)
(0.0996011454 0.00105215907 0)
(0.0994653703 0.00104020353 0)
(0.099331692 0.00100879744 0)
(0.099202639 0.000965619015 0)
(0.0990796812 0.000920032949 0)
(0.0989629585 0.000882615834 0)
(0.0988510805 0.000864067948 0)
(0.0987411298 0.000873506895 0)
(0.0986289669 0.000916475739 0)
(0.0985098462 0.000993264146 0)
(0.0983792471 0.00109819985 0)
(0.0982337411 0.00122035636 0)
(0.0980716785 0.00134568501 0)
(0.0978935066 0.00146006846 0)
(0.0977016246 0.00155241551 0)
(0.097499807 0.00161684761 0)
(0.0972923637 0.00165332219 0)
(0.0970832887 0.00166659472 0)
(0.0968756378 0.00166401212 0)
(0.0966712788 0.00165300212 0)
(0.0964710119 0.00163912492 0)
(0.0962749357 0.00162521065 0)
(0.0960828765 0.00161160529 0)
(0.0958947239 0.00159713098 0)
(0.0957105918 0.00158020051 0)
(0.0955308158 0.00155963168 0)
(0.0953558515 0.00153497064 0)
(0.0951861552 0.00150639469 0)
(0.0950221005 0.00147440805 0)
(0.0948639486 0.00143954299 0)
(0.0947118604 0.00140218612 0)
(0.0945659273 0.00136254175 0)
(0.094426201 0.00132067895 0)
(0.0942927127 0.00127659727 0)
(0.0941654839 0.0012302706 0)
(0.0940445317 0.00118166064 0)
(0.0939298743 0.0011307111 0)
(0.0938215375 0.00107733762 0)
(0.093719563 0.00102142276 0)
(0.0936240153 0.000962817635 0)
(0.0935349884 0.000901347842 0)
(0.0934526104 0.000836820467 0)
(0.0933770459 0.000769030834 0)
(0.0933084975 0.000697769009 0)
(0.0932472059 0.000622827468 0)
(0.093193451 0.00054401064 0)
(0.0931475541 0.00046114466 0)
(0.0931098825 0.00037408686 0)
(0.0930808539 0.000282739413 0)
(0.0930609464 0.000187072756 0)
(0.093050733 8.72079236e-05 0)
(0.0930507087 -1.66313309e-05 0)
(0.0930613937 -0.000124814969 0)
(0.0930835856 -0.000236993598 0)
(0.0931181915 -0.000352894074 0)
(0.0931660527 -0.000472232808 0)
(0.0932278922 -0.000594624312 0)
(0.0933043766 -0.000719531798 0)
(0.0933961213 -0.000846252569 0)
(0.0935036478 -0.00097391851 0)
(0.0936273436 -0.00110149444 0)
(0.0937674342 -0.00122778541 0)
(0.0939239506 -0.00135145418 0)
(0.0940966953 -0.00147104584 0)
(0.0942852118 -0.00158502184 0)
(0.0944887622 -0.00169180416 0)
(0.0947063144 -0.00178982779 0)
(0.0949365407 -0.00187759849 0)
(0.0951778312 -0.00195375274 0)
(0.0954283216 -0.00201711553 0)
(0.0956859348 -0.00206675175 0)
(0.0959484356 -0.00210200741 0)
(0.0962134942 -0.00212253748 0)
(0.0964787551 -0.00212831849 0)
(0.0967419065 -0.00211964509 0)
(0.0970007464 -0.00209711146 0)
(0.0972532409 -0.00206157939 0)
(0.0974975714 -0.00201413591 0)
(0.0977321699 -0.00195604405 0)
(0.0979557405 -0.00188869027 0)
(0.0981672679 -0.00181353204 0)
(0.0983660145 -0.00173204842 0)
(0.0985515072 -0.00164569606 0)
(0.0987235169 -0.00155587185 0)
(0.0988820324 -0.00146388321 0)
(0.099027231 -0.00137092612 0)
(0.0991594477 -0.00127807046 0)
(0.0992791452 -0.00118625203 0)
(0.0993868846 -0.00109627029 0)
(0.0994832991 -0.00100879077 0)
(0.0995690704 -0.000924351146 0)
(0.0996449081 -0.000843369942 0)
(0.0997115326 -0.000766157106 0)
(0.0997696606 -0.000692925717 0)
(0.099819994 -0.000623804104 0)
(0.0998632114 -0.000558847872 0)
(0.0998999625 -0.00049805135 0)
(0.099930863 -0.000441358343 0)
(0.0999564919 -0.000388672381 0)
(0.0999773901 -0.00033986618 0)
(0.0999940596 -0.000294789406 0)
(0.100006964 -0.000253275294 0)
(0.100016525 -0.000215146793 0)
(0.100023127 -0.000180221031 0)
(0.100027112 -0.000148312306 0)
(0.100028797 -0.000119234781 0)
(0.100028488 -9.28031757e-05 0)
(0.100026483 -6.88327415e-05 0)
(0.100023044 -4.71420242e-05 0)
(0.100018389 -2.75581963e-05 0)
(0.100012715 -9.921424e-06 0)
(0.100006126 5.92557627e-06 0)
(0.0999986706 2.01451979e-05 0)
(0.0999904837 3.2835085e-05 0)
(0.0999817114 4.41110941e-05 0)
(0.0999724531 5.40907536e-05 0)
(0.0999627915 6.28793523e-05 0)
(0.099952801 7.05771516e-05 0)
(0.0999425478 7.72792489e-05 0)
(0.0999320907 8.30748262e-05 0)
(0.0999214824 8.8047286e-05 0)