/*--------------------------------*- C++ -*----------------------------------*\
| =========                 |                                                 |
| \\      /  F ield         | OpenFOAM: The Open Source CFD Toolbox           |
|  \\    /   O peration     | Version:  v2012                                 |
|   \\  /    A nd           | Website:  www.openfoam.com                      |
|    \\/     M anipulation  |                                                 |
\*---------------------------------------------------------------------------*/
FoamFile
{
    version     2.0;
    format      ascii;
    class       surfaceVectorField;
    location    "2.89";
    object      Uf;
}
// * * * * * * * * * * * * * * * * * * * * * * * * * * * * * * * * * * * * * //

dimensions      [0 1 -1 0 0 0 0];


internalField   nonuniform List<vector> 
56481
(
(0.100005324 -1.84469149e-05 0)
(0.100000708 -1.30089153e-05 0)
(0.100021269 -4.18336667e-05 0)
(0.100008935 -4.51112045e-05 0)
(0.10004908 -6.84708223e-05 0)
(0.100028645 -8.35931238e-05 0)
(0.100089044 -9.4273869e-05 0)
(0.100062055 -0.000124333749 0)
(0.100139733 -0.000113684703 0)
(0.10010877 -0.000160246528 0)
(0.100197756 -0.000121507667 0)
(0.10016615 -0.000183166114 0)
(0.100258193 -0.000114789939 0)
(0.100229722 -0.000186906018 0)
(0.100315509 -9.35648213e-05 0)
(0.100293788 -0.000169314887 0)
(0.100364484 -6.03277975e-05 0)
(0.100352329 -0.000132298281 0)
(0.100400834 -1.87829267e-05 0)
(0.100399956 -8.05151786e-05 0)
(0.100421647 2.7671689e-05 0)
(0.100432992 -1.92891139e-05 0)
(0.10043234 7.44034455e-05 0)
(0.100451138 4.26211054e-05 0)
(0.100432399 0.000115543893 0)
(0.100455615 0.000100788924 0)
(0.100422761 0.000147174364 0)
(0.100447661 0.000149165607 0)
(0.100405322 0.00016748462 0)
(0.100429668 0.000184261209 0)
(0.100382596 0.000175963919 0)
(0.100404622 0.000204394061 0)
(0.100357222 0.000173223232 0)
(0.100375609 0.000209587058 0)
(0.100331665 0.000160733492 0)
(0.100345576 0.000201206593 0)
(0.10030807 0.000140562729 0)
(0.100317191 0.000181451496 0)
(0.100288139 0.000115345416 0)
(0.100292717 0.000153169803 0)
(0.10027294 8.84248792e-05 0)
(0.100273862 0.000120023879 0)
(0.100262571 6.39070272e-05 0)
(0.100261509 8.6776585e-05 0)
(0.100255912 4.63985992e-05 0)
(0.100255374 5.93844274e-05 0)
(0.100251382 4.01491281e-05 0)
(0.100253871 4.37078476e-05 0)
(0.10024572 4.79541833e-05 0)
(0.10025402 4.49127618e-05 0)
(0.100234548 7.05587597e-05 0)
(0.100251509 6.58966608e-05 0)
(0.100213455 0.000106542247 0)
(0.100241317 0.000106341606 0)
(0.100178845 0.000152541564 0)
(0.1002187 0.0001628993 0)
(0.100128442 0.00020387466 0)
(0.100180067 0.000229902348 0)
(0.100061489 0.000255431627 0)
(0.100123467 0.000300535207 0)
(0.0999786608 0.000302513836 0)
(0.100048712 0.000368106425 0)
(0.0998817756 0.00034141229 0)
(0.0999571939 0.000427033178 0)
(0.0997733872 0.000369695851 0)
(0.099851472 0.000473388836 0)
(0.0996563933 0.000386272612 0)
(0.099734781 0.000505048576 0)
(0.0995337239 0.000391311261 0)
(0.0996105848 0.000521562752 0)
(0.0994081292 0.000386099954 0)
(0.0994822483 0.00052391483 0)
(0.0992820317 0.000372891814 0)
(0.0993528176 0.000514289561 0)
(0.0991573853 0.000354747772 0)
(0.0992248562 0.00049590817 0)
(0.0990354964 0.000335349502 0)
(0.0991002753 0.000472906019 0)
(0.0989168069 0.000318732685 0)
(0.0989801225 0.000450160051 0)
(0.0988006969 0.000308898189 0)
(0.098864352 0.000432947391 0)
(0.0986854125 0.000309298774 0)
(0.098751661 0.000426356184 0)
(0.0985682242 0.000322259866 0)
(0.0986395077 0.000434474308 0)
(0.0984458562 0.000348455848 0)
(0.0985244018 0.000459515777 0)
(0.0983151144 0.000386605751 0)
(0.0984024685 0.00050114824 0)
(0.0981735457 0.000433544402 0)
(0.0982701826 0.000556296882 0)
(0.0980199419 0.000484741432 0)
(0.0981250888 0.000619591022 0)
(0.097854553 0.000535192476 0)
(0.0979663116 0.000684416672 0)
(0.0976789687 0.000580455315 0)
(0.0977947081 0.000744318057 0)
(0.0974957217 0.000617525145 0)
(0.0976126233 0.000794346257 0)
(0.097307738 0.000645283625 0)
(0.097423326 0.000831951253 0)
(0.0971177908 0.000664405575 0)
(0.0972303009 0.000857165637 0)
(0.0969280994 0.000676802554 0)
(0.0970366019 0.000872078473 0)
(0.0967401511 0.000684838367 0)
(0.0968444398 0.000879843071 0)
(0.0965547508 0.000690602115 0)
(0.0966550771 0.000883599581 0)
(0.0963722272 0.000695457256 0)
(0.0964689967 0.000885670204 0)
(0.0961926939 0.000699943211 0)
(0.0962862267 0.000887225292 0)
(0.0960162662 0.000703961709 0)
(0.0961066762 0.000888407558 0)
(0.0958431798 0.000707094694 0)
(0.0959303701 0.000888737381 0)
(0.0956738066 0.000708897704 0)
(0.0957575403 0.00088756671 0)
(0.0955086032 0.0007090729 0)
(0.0955885936 0.000884401971 0)
(0.0953480376 0.000707506153 0)
(0.095424018 0.000879027181 0)
(0.0951925315 0.000704212011 0)
(0.0952642869 0.000871462043 0)
(0.0950424336 0.000699249826 0)
(0.0951097996 0.000861842638 0)
(0.0948980198 0.000692659219 0)
(0.0949608652 0.000850308038 0)
(0.0947595086 0.000684433313 0)
(0.0948177163 0.000836937436 0)
(0.0946270781 0.000674523098 0)
(0.094680533 0.000821740294 0)
(0.094500879 0.000662855697 0)
(0.0945494639 0.000804677464 0)
(0.0943810421 0.000649351618 0)
(0.094424638 0.00078568814 0)
(0.0942676821 0.000633934385 0)
(0.0943061703 0.000764707661 0)
(0.0941609011 0.000616533141 0)
(0.0941941645 0.000741673543 0)
(0.0940607939 0.000597081954 0)
(0.0940887159 0.000716524356 0)
(0.0939674536 0.00057551922 0)
(0.0939899177 0.000689197192 0)
(0.09388098 0.00055178875 0)
(0.0938978679 0.000659627148 0)
(0.0938014883 0.000525842196 0)
(0.093812678 0.000627749188 0)
(0.0937291231 0.000497641173 0)
(0.0937344833 0.000593500625 0)
(0.0936640827 0.000467156072 0)
(0.0936634557 0.000556820041 0)
(0.0936066804 0.000434349817 0)
(0.0935998256 0.000517635219 0)
(0.0935572285 0.000399160743 0)
(0.0935438672 0.000475808682 0)
(0.0935158677 0.000361526241 0)
(0.0934958137 0.0004311334 0)
(0.0934828694 0.000321372978 0)
(0.0934558593 0.000383389807 0)
(0.0934585511 0.000278564103 0)
(0.0934242185 0.00033254311 0)
(0.0934430089 0.000232919473 0)
(0.0934010735 0.00027871019 0)
(0.0934362591 0.000184292263 0)
(0.0933865327 0.000221761711 0)
(0.0934381073 0.000132708039 0)
(0.093380671 0.000161760144 0)
(0.0934480046 7.84571267e-05 0)
(0.093383593 9.91435142e-05 0)
(0.0934648164 2.27597017e-05 0)
(0.0933955812 3.47416311e-05 0)
(0.0934893756 -3.23807951e-05 0)
(0.0934163856 -3.22923807e-05 0)
(0.0935275168 -8.68452517e-05 0)
(0.0934473454 -9.97061654e-05 0)
(0.0935783072 -0.000142018239 0)
(0.0934908625 -0.000167469589 0)
(0.093641729 -0.000198343217 0)
(0.0935472535 -0.000236619537 0)
(0.0937177137 -0.000255620413 0)
(0.0936162145 -0.000306906784 0)
(0.0938062361 -0.000313599285 0)
(0.0936978862 -0.000378050816 0)
(0.093907268 -0.000371983119 0)
(0.0937924831 -0.000449772829 0)
(0.0940207143 -0.000430363067 0)
(0.0939000103 -0.000521634696 0)
(0.0941463958 -0.000488256876 0)
(0.0940203618 -0.000593081283 0)
(0.0942840361 -0.000545144622 0)
(0.0941533639 -0.000663497757 0)
(0.0944332418 -0.000600475305 0)
(0.0942987237 -0.000732219011 0)
(0.0945934888 -0.00065367157 0)
(0.0944560021 -0.000798536527 0)
(0.0947641169 -0.000704141023 0)
(0.0946246123 -0.000861715614 0)
(0.0949443316 -0.000751291494 0)
(0.0948038183 -0.000921015521 0)
(0.095133209 -0.000794549309 0)
(0.0949927346 -0.000975710947 0)
(0.0953297059 -0.000833379773 0)
(0.0951903336 -0.00102511577 0)
(0.0955326724 -0.000867307443 0)
(0.0953954568 -0.00106860738 0)
(0.0957408687 -0.000895933988 0)
(0.095606831 -0.00110564939 0)
(0.0959529835 -0.000918952069 0)
(0.0958230887 -0.001135811 0)
(0.0961676575 -0.000936154733 0)
(0.0960427917 -0.00115878197 0)
(0.0963835081 -0.000947440149 0)
(0.0962644598 -0.00117438235 0)
(0.0965991559 -0.000952812206 0)
(0.0964866003 -0.00118256693 0)
(0.0968132527 -0.000952377427 0)
(0.0967077402 -0.00118342427 0)
(0.0970245069 -0.000946338693 0)
(0.0969264564 -0.00117717085 0)
(0.0972317075 -0.000934986198 0)
(0.0971414042 -0.00116414076 0)
(0.0974337443 -0.000918686064 0)
(0.0973513424 -0.00114477168 0)
(0.0976296237 -0.000897867095 0)
(0.0975551527 -0.00111958795 0)
(0.0978184803 -0.00087300634 0)
(0.0977518554 -0.00108918175 0)
(0.0979995834 -0.000844614092 0)
(0.097940618 -0.0010541934 0)
(0.0981723399 -0.000813219037 0)
(0.0981207604 -0.00101529169 0)
(0.0983362923 -0.000779354265 0)
(0.0982917537 -0.000973155178 0)
(0.0984911146 -0.00074354456 0)
(0.0984532157 -0.000928455199 0)
(0.0986366041 -0.000706295379 0)
(0.0986049033 -0.000881841005 0)
(0.0987726722 -0.000668083797 0)
(0.0987467015 -0.000833927446 0)
(0.0988993331 -0.000629351346 0)
(0.0988786112 -0.000785285282 0)
(0.0990166914 -0.000590498813 0)
(0.0990007353 -0.000736434081 0)
(0.0991249306 -0.000551882817 0)
(0.0991132647 -0.000687837566 0)
(0.0992243001 -0.000513814178 0)
(0.0992164643 -0.000639901188 0)
(0.0993151037 -0.000476557769 0)
(0.0993106596 -0.000592971654 0)
(0.0993976883 -0.000440333554 0)
(0.0993962237 -0.000547338058 0)
(0.0994724334 -0.00040531838 0)
(0.0994735657 -0.000503234284 0)
(0.0995397417 -0.000371648182 0)
(0.0995431202 -0.000460842331 0)
(0.0996000325 -0.00033942096 0)
(0.0996053383 -0.000420296371 0)
(0.0996537343 -0.000308700882 0)
(0.0996606801 -0.00038168749 0)
(0.0997012798 -0.000279522841 0)
(0.0997096086 -0.000345068776 0)
(0.0997430999 -0.000251896412 0)
(0.0997525837 -0.000310460487 0)
(0.0997796202 -0.000225809069 0)
(0.0997900579 -0.000277855147 0)
(0.0998112586 -0.000201229909 0)
(0.0998224723 -0.000247222502 0)
(0.0998384247 -0.000178114717 0)
(0.0998502554 -0.000218514461 0)
(0.0998615168 -0.000156411175 0)
(0.0998738209 -0.000191670284 0)
(0.09988092 -0.000136062773 0)
(0.0998935659 -0.000166621704 0)
(0.0998970053 -0.000117012621 0)
(0.0999098685 -0.000143297405 0)
(0.0999101282 -9.92089363e-05 0)
(0.0999230859 -0.000121627007 0)
(0.0999206248 -8.26115962e-05 0)
(0.0999335522 -0.000101544765 0)
(0.0999288042 -6.71980087e-05 0)
(0.0999415736 -8.29920294e-05 0)
(0.0999349369 -5.29655381e-05 0)
(0.099947423 -6.59175999e-05 0)
(0.0999392403 -3.99249458e-05 0)
(0.0999513374 -5.02751734e-05 0)
(0.0999418697 -2.8079064e-05 0)
(0.0999535166 -3.60159173e-05 0)
(0.0999429234 -1.73942686e-05 0)
(0.0999541208 -2.30747859e-05 0)
(0.0999424582 -7.76457105e-06 0)
(0.0999532808 -1.13555812e-05 0)
(0.0999404114 1.04051813e-06 0)
(0.0999510836 -6.09951214e-07 0)
(0.0999376398 9.08548061e-06 0)
(0.09994777 8.81210495e-06 0)
(0.0999340384 1.62591258e-05 0)
(0.0999436353 1.74945515e-05 0)
(0.0999296077 2.25880676e-05 0)
(0.0999387344 2.52206445e-05 0)
(0.0999243885 2.81648043e-05 0)
(0.0999330789 3.20710878e-05 0)
(0.099918456 3.30702479e-05 0)
(0.0999267547 3.81121928e-05 0)
(0.0999118981 3.73759923e-05 0)
(0.0999198461 4.34113913e-05 0)
(0.0999048013 4.11472065e-05 0)
(0.0999124264 4.80416444e-05 0)
(0.0998972478 4.44399449e-05 0)
(0.0999045698 5.20699764e-05 0)
(0.099889313 4.73019683e-05 0)
(0.0998963477 5.55566746e-05 0)
(0.0998810647 4.97747123e-05 0)
(0.0998878246 5.85553634e-05 0)
(0.0998725642 5.18942916e-05 0)
(0.0998790593 6.11132481e-05 0)
(0.0998638658 5.36921339e-05 0)
(0.0998701048 6.32719618e-05 0)
(0.0998550177 5.51957294e-05 0)
(0.0998610084 6.50683608e-05 0)
(0.0998460618 5.64294517e-05 0)
(0.0998518117 6.65352703e-05 0)
(0.0998370346 5.74153398e-05 0)
(0.0998425511 6.77021789e-05 0)
(0.0998279675 5.81737407e-05 0)
(0.0998332583 6.85958605e-05 0)
(0.0998188875 5.87237409e-05 0)
(0.0998239605 6.92408669e-05 0)
(0.099809818 5.9083394e-05 0)
(0.0998146815 6.96598701e-05 0)
(0.0998007793 5.92697996e-05 0)
(0.0998054417 6.98738816e-05 0)
(0.0997917892 5.92990989e-05 0)
(0.0997962589 6.99023858e-05 0)
(0.0997828635 5.91864344e-05 0)
(0.0997871489 6.97634248e-05 0)
(0.0997740161 5.89458999e-05 0)
(0.0997781251 6.9473655e-05 0)
(0.0997652594 5.85904888e-05 0)
(0.0997691995 6.90483842e-05 0)
(0.0997566044 5.81320505e-05 0)
(0.0997603826 6.85015972e-05 0)
(0.0997480609 5.758126e-05 0)
(0.0997516838 6.78459777e-05 0)
(0.0997396376 5.69476148e-05 0)
(0.099743111 6.7092936e-05 0)
(0.099731342 5.62394718e-05 0)
(0.0997346712 6.62526543e-05 0)
(0.0997231805 5.54641263e-05 0)
(0.0997263705 6.53341603e-05 0)
(0.0997151585 5.46279371e-05 0)
(0.0997182137 6.43454283e-05 0)
(0.0997072805 5.37364824e-05 0)
(0.0997102051 6.32935114e-05 0)
(0.09969955 5.27947212e-05 0)
(0.099702348 6.21846836e-05 0)
(0.0996919705 5.18070784e-05 0)
(0.0996946452 6.10245729e-05 0)
(0.0996845452 5.07774352e-05 0)
(0.0996870995 5.98180633e-05 0)
(0.0996772768 4.97091874e-05 0)
(0.0996797129 5.8569184e-05 0)
(0.0996701682 4.86051743e-05 0)
(0.0996724884 5.72812725e-05 0)
(0.0996632224 4.74680899e-05 0)
(0.0996654248 5.59565778e-05 0)
(0.0996564432 4.62979566e-05 0)
(0.0996585364 5.45975716e-05 0)
(0.0996498367 4.51015512e-05 0)
(0.0996517851 5.31993774e-05 0)
(0.0996434096 4.38471939e-05 0)
(0.0996453195 5.17793813e-05 0)
(0.099637185 4.26500386e-05 0)
(0.0996386566 5.02405194e-05 0)
(0.0996311613 4.09584657e-05 0)
(0.0996335667 4.89348718e-05 0)
(0.0996244578 4.62362129e-05 0)
(0.100003044 -3.64267687e-05 0)
(0.100000619 -1.65140915e-05 0)
(0.100016445 -8.16992241e-05 0)
(0.100008252 -6.05430084e-05 0)
(0.100042408 -0.0001326266 0)
(0.100027219 -0.000113489757 0)
(0.100082212 -0.000182211918 0)
(0.100060301 -0.000170168897 0)
(0.100135199 -0.000220852908 0)
(0.100107533 -0.000221261441 0)
(0.100198088 -0.000239425537 0)
(0.100166438 -0.000255583538 0)
(0.100265427 -0.000232563133 0)
(0.100232487 -0.000264448326 0)
(0.10033079 -0.000199996466 0)
(0.100299793 -0.000244581044 0)
(0.100388058 -0.000145843055 0)
(0.100362053 -0.000198243806 0)
(0.100432546 -7.68545914e-05 0)
(0.100413661 -0.000131742757 0)
(0.100462341 -5.89180704e-07 0)
(0.100450907 -5.35987295e-05 0)
(0.100474606 7.46130858e-05 0)
(0.100471989 2.84970546e-05 0)
(0.100471075 0.000140809598 0)
(0.100476987 0.00010485475 0)
(0.100454801 0.000192582843 0)
(0.100467921 0.00016790624 0)
(0.10042926 0.000226964957 0)
(0.100447749 0.000213671366 0)
(0.100397984 0.000243103127 0)
(0.100419834 0.000240408747 0)
(0.100364358 0.000241900405 0)
(0.100387683 0.000248308068 0)
(0.100331535 0.000225486729 0)
(0.100354631 0.000239003088 0)
(0.100302301 0.000196848113 0)
(0.100323679 0.000215115179 0)
(0.100278934 0.000159850876 0)
(0.100297386 0.000180076832 0)
(0.10026297 0.00011954956 0)
(0.100277722 0.000138406721 0)
(0.100254858 8.23625241e-05 0)
(0.100265791 9.61181748e-05 0)
(0.100253746 5.56771079e-05 0)
(0.100261497 6.06650121e-05 0)
(0.100256949 4.6553062e-05 0)
(0.100263185 4.00184689e-05 0)
(0.100260324 5.99566314e-05 0)
(0.100267458 4.10263874e-05 0)
(0.100258823 9.74703085e-05 0)
(0.100269535 6.76251154e-05 0)
(0.100247104 0.000156884736 0)
(0.100264024 0.000119837214 0)
(0.100220461 0.00023266287 0)
(0.100245814 0.000193578998 0)
(0.100175631 0.000317108898 0)
(0.100210895 0.00028152469 0)
(0.100111229 0.000401903585 0)
(0.100156942 0.000374695231 0)
(0.100027783 0.000479530288 0)
(0.100083529 0.000464195331 0)
(0.0999274286 0.000544238193 0)
(0.0999919812 0.000542592751 0)
(0.0998134027 0.000592448762 0)
(0.0998849754 0.000604691401 0)
(0.0996895045 0.000622712981 0)
(0.0997660176 0.000647719157 0)
(0.0995596333 0.000635421119 0)
(0.099638948 0.000671111436 0)
(0.0994274495 0.000632467808 0)
(0.0995075481 0.000676126481 0)
(0.0992961395 0.000617004488 0)
(0.0993752617 0.000665495021 0)
(0.0991682231 0.000593301063 0)
(0.0992449897 0.00064320577 0)
(0.0990453503 0.000566628823 0)
(0.099118896 0.000614395907 0)
(0.0989280771 0.000543008624 0)
(0.0989981859 0.000585201902 0)
(0.0988156722 0.000528678116 0)
(0.0988828717 0.000562383349 0)
(0.0987060465 0.00052923385 0)
(0.0987716031 0.000552591789 0)
(0.0985959027 0.000548569422 0)
(0.0986616778 0.000561306526 0)
(0.0984811572 0.000587889226 0)
(0.098549323 0.000591647011 0)
(0.0983576082 0.000645148791 0)
(0.0984302638 0.000643416764 0)
(0.0982217308 0.000715204253 0)
(0.0983004908 0.000712761722 0)
(0.0980714037 0.000790748158 0)
(0.0981570561 0.000792694931 0)
(0.0979063582 0.000863836349 0)
(0.0979986867 0.000874469074 0)
(0.0977282047 0.00092758405 0)
(0.0978260372 0.000949464507 0)
(0.0975400217 0.000977528903 0)
(0.097641501 0.00101104182 0)
(0.0973456343 0.00101226475 0)
(0.0974486311 0.00105579124 0)
(0.0971488066 0.00103320432 0)
(0.0972513469 0.00108381574 0)
(0.0969525846 0.00104363102 0)
(0.0970531666 0.00109803099 0)
(0.0967589558 0.0010474271 0)
(0.0968566785 0.00110280954 0)
(0.0965688631 0.00104792856 0)
(0.0966633688 0.00110249415 0)
(0.096382491 0.0010472422 0)
(0.0964737812 0.00110028052 0)
(0.0961996645 0.00104613314 0)
(0.0962878836 0.00109775278 0)
(0.0960202029 0.00104436266 0)
(0.0961054676 0.00109506023 0)
(0.0958441276 0.00104122318 0)
(0.0959264425 0.00109149074 0)
(0.095671705 0.00103601698 0)
(0.0957509612 0.001086114 0)
(0.0955033729 0.00102832737 0)
(0.0955793951 0.0010782389 0)
(0.0953396244 0.00101806337 0)
(0.0954122283 0.00106758604 0)
(0.0951809102 0.00100535513 0)
(0.0952499426 0.00105422377 0)
(0.0950275901 0.000990406771 0)
(0.0950929426 0.00103839314 0)
(0.0948799292 0.000973385637 0)
(0.0949415325 0.00102034171 0)
(0.0947381217 0.000954376713 0)
(0.0947959297 0.00100023093 0)
(0.0946023176 0.00093338949 0)
(0.0946562942 0.000978120749 0)
(0.0944726432 0.000910387616 0)
(0.094522753 0.000953999454 0)
(0.0943492112 0.000885316267 0)
(0.094395416 0.000927821952 0)
(0.0942321246 0.000858116345 0)
(0.0942743821 0.000899534698 0)
(0.0941214792 0.000828726924 0)
(0.0941597419 0.000869083333 0)
(0.0940173682 0.000797082378 0)
(0.0940515812 0.00083640975 0)
(0.0939198882 0.00076310993 0)
(0.0939499862 0.000801446959 0)
(0.0938291472 0.000726729907 0)
(0.0938550511 0.000764116668 0)
(0.0937452743 0.000687857791 0)
(0.0937668861 0.000724330116 0)
(0.0936684283 0.000646405148 0)
(0.0936856254 0.000681989973 0)
(0.0935988067 0.000602275378 0)
(0.0936114339 0.000636990355 0)
(0.0935366466 0.00055534244 0)
(0.0935445106 0.000589213542 0)
(0.0934821862 0.000505433173 0)
(0.0934850785 0.00053852062 0)
(0.0934356189 0.000452362295 0)
(0.0934333596 0.000484756307 0)
(0.0933970633 0.000395948969 0)
(0.0933895565 0.000427787173 0)
(0.0933666498 0.000335994248 0)
(0.0933538661 0.000367564803 0)
(0.0933445368 0.000272345735 0)
(0.0933265266 0.000304173588 0)
(0.0933308892 0.000205005803 0)
(0.0933078268 0.000237477173 0)
(0.0933261015 0.000134209735 0)
(0.0932981129 0.000167273234 0)
(0.0933309707 6.04029785e-05 0)
(0.0932977342 9.35365304e-05 0)
(0.0933473175 -1.60087933e-05 0)
(0.0933069009 1.59180977e-05 0)
(0.0933733573 -9.3821869e-05 0)
(0.0933262239 -6.22775973e-05 0)
(0.0934105263 -0.000172311232 0)
(0.0933564582 -0.000142506836 0)
(0.0934597847 -0.000252140698 0)
(0.0933983965 -0.000224191417 0)
(0.0935214978 -0.000333511318 0)
(0.0934528968 -0.000307683119 0)
(0.0935961143 -0.000416075681 0)
(0.0935203126 -0.000392828758 0)
(0.0936839111 -0.000499419765 0)
(0.0936008929 -0.000479150149 0)
(0.093785006 -0.00058309341 0)
(0.0936949185 -0.000566185105 0)
(0.0938994281 -0.000666521929 0)
(0.0938025517 -0.000653393549 0)
(0.0940271065 -0.000749023554 0)
(0.0939238158 -0.000740104832 0)
(0.0941678413 -0.000829845575 0)
(0.0940586204 -0.000825556051 0)
(0.0943212891 -0.000908179255 0)
(0.0942067391 -0.00090891635 0)
(0.0944869511 -0.000983175965 0)
(0.0943677822 -0.000989298831 0)
(0.0946641657 -0.00105397099 0)
(0.094541187 -0.00106578096 0)
(0.0948521056 -0.00111970931 0)
(0.0947262124 -0.00113743106 0)
(0.0950497806 -0.00117957168 0)
(0.0949219369 -0.00120333672 0)
(0.0952560473 -0.00123280134 0)
(0.095127263 -0.00126263494 0)
(0.0954696228 -0.0012787299 0)
(0.0953409298 -0.00131454279 0)
(0.095689105 -0.00131680096 0)
(0.0955615308 -0.00135838652 0)
(0.0959129979 -0.00134658989 0)
(0.09578754 -0.001393627 0)
(0.0961397409 -0.00136781882 0)
(0.0960173417 -0.0014198799 0)
(0.0963677423 -0.0013803658 0)
(0.096249267 -0.00143692943 0)
(0.0965954144 -0.00138426765 0)
(0.0964816316 -0.00144473479 0)
(0.0968212082 -0.00137971632 0)
(0.0967127754 -0.00144342927 0)
(0.0970436468 -0.00136704934 0)
(0.0969411001 -0.00143331217 0)
(0.0972613545 -0.00134673497 0)
(0.0971651038 -0.00141483441 0)
(0.0974730818 -0.00131935321 0)
(0.0973834107 -0.00138857889 0)
(0.0976777244 -0.00128557393 0)
(0.0975947944 -0.00135523702 0)
(0.097874336 -0.00124613346 0)
(0.0977981951 -0.00131558294 0)
(0.098062135 -0.00120181091 0)
(0.0979927287 -0.00127044682 0)
(0.0982405062 -0.00115340519 0)
(0.098177691 -0.00122068879 0)
(0.0984089967 -0.00110171402 0)
(0.0983525544 -0.00116717449 0)
(0.0985673082 -0.00104751514 0)
(0.098516961 -0.00111075331 0)
(0.0987152861 -0.000991550546 0)
(0.0986707106 -0.00105223973 0)
(0.0988529056 -0.000934513873 0)
(0.0988137466 -0.000992398363 0)
(0.0989802571 -0.000877040834 0)
(0.0989461396 -0.000931932425 0)
(0.0990975302 -0.000819702775 0)
(0.0990680699 -0.00087147584 0)
(0.0992049981 -0.000763002927 0)
(0.0991798105 -0.000811588466 0)
(0.0993030021 -0.000707375168 0)
(0.0992817098 -0.000752754241 0)
(0.0993919372 -0.000653184745 0)
(0.0993741754 -0.000695381789 0)
(0.0994722391 -0.000600730622 0)
(0.0994576597 -0.000639806973 0)
(0.0995443725 -0.000550249145 0)
(0.0995326468 -0.000586296937 0)
(0.0996088204 -0.000501918581 0)
(0.0995996403 -0.000535054999 0)
(0.0996660752 -0.000455864453 0)
(0.0996591538 -0.0004862262 0)
(0.0997166313 -0.000412165412 0)
(0.0997117031 -0.000439903614 0)
(0.0997609786 -0.000370859287 0)
(0.099757799 -0.000396135354 0)
(0.0997995982 -0.000331949165 0)
(0.0997979422 -0.00035493146 0)
(0.0998329582 -0.000295409352 0)
(0.0998326185 -0.00031626976 0)
(0.0998615107 -0.000261191053 0)
(0.0998622962 -0.000280101111 0)
(0.0998856883 -0.000229228276 0)
(0.0998874234 -0.000246355383 0)
(0.0999059032 -0.000199444318 0)
(0.0999084263 -0.000214948049 0)
(0.0999225451 -0.00017175776 0)
(0.0999257073 -0.000185785049 0)
(0.0999359785 -0.000146086832 0)
(0.0999396447 -0.000158766158 0)
(0.0999465394 -0.000122352525 0)
(0.0999505926 -0.000133788106 0)
(0.0999545314 -0.000100479954 0)
(0.0999588799 -0.000110747609 0)
(0.0999602226 -8.03959618e-05 0)
(0.0999648107 -8.95455374e-05 0)
(0.09996385 -6.20240984e-05 0)
(0.0999686614 -7.00945633e-05 0)
(0.0999656319 -4.52818772e-05 0)
(0.0999706761 -5.23270724e-05 0)
(0.0999657754 -3.00788753e-05 0)
(0.0999710645 -3.61811627e-05 0)
(0.0999644781 -1.63113036e-05 0)
(0.0999700031 -2.15809463e-05 0)
(0.0999619473 -3.85308531e-06 0)
(0.0999676479 -8.44133996e-06 0)
(0.0999584003 7.4932036e-06 0)
(0.0999641664 3.47450805e-06 0)
(0.0999537698 1.78054628e-05 0)
(0.0999596596 1.41441558e-05 0)
(0.0999483409 2.70191412e-05 0)
(0.0999542572 2.37459676e-05 0)
(0.0999422026 3.51687449e-05 0)
(0.0999481285 3.22890524e-05 0)
(0.0999354481 4.23506523e-05 0)
(0.0999413563 3.98489816e-05 0)
(0.099928152 4.86532035e-05 0)
(0.0999340173 4.65137582e-05 0)
(0.0999203815 5.41589762e-05 0)
(0.0999261892 5.23593002e-05 0)
(0.0999122025 5.89469194e-05 0)
(0.099917941 5.74598236e-05 0)
(0.0999036783 6.30880007e-05 0)
(0.0999093379 6.18856794e-05 0)
(0.0998948687 6.66451284e-05 0)
(0.0999004418 6.57011162e-05 0)
(0.0998858292 6.96746962e-05 0)
(0.09989131 6.89645123e-05 0)
(0.0998766106 7.22273504e-05 0)
(0.0998819945 7.17286335e-05 0)
(0.0998672586 7.43484945e-05 0)
(0.0998725422 7.40408987e-05 0)
(0.0998578141 7.60788726e-05 0)
(0.0998629952 7.59438682e-05 0)
(0.099848313 7.74551528e-05 0)
(0.0998533902 7.7475834e-05 0)
(0.0998387871 7.8510463e-05 0)
(0.0998437595 7.86713948e-05 0)
(0.0998292639 7.92748738e-05 0)
(0.0998341312 7.95619817e-05 0)
(0.0998197674 7.97757989e-05 0)
(0.0998245296 8.01763009e-05 0)
(0.0998103182 8.00383168e-05 0)
(0.0998149756 8.05406795e-05 0)
(0.0998009346 8.00854215e-05 0)
(0.0998054874 8.06793223e-05 0)
(0.0997916319 7.99382173e-05 0)
(0.0997960805 8.06144962e-05 0)
(0.0997824239 7.96160684e-05 0)
(0.0997867687 8.03666652e-05 0)
(0.099773322 7.91367144e-05 0)
(0.0997775636 7.99545895e-05 0)
(0.0997643364 7.85163604e-05 0)
(0.0997684755 7.93954038e-05 0)
(0.0997554759 7.77697504e-05 0)
(0.0997595131 7.87046837e-05 0)
(0.0997467478 7.69102332e-05 0)
(0.0997506842 7.78965094e-05 0)
(0.0997381586 7.59498302e-05 0)
(0.0997419951 7.69835335e-05 0)
(0.0997297137 7.48993133e-05 0)
(0.0997334515 7.59770591e-05 0)
(0.0997214177 7.37682949e-05 0)
(0.0997250581 7.4887132e-05 0)
(0.0997132743 7.25653312e-05 0)
(0.0997168185 7.37226449e-05 0)
(0.0997052866 7.12980341e-05 0)
(0.0997087358 7.2491452e-05 0)
(0.0996974571 6.99731664e-05 0)
(0.0997008125 7.12004767e-05 0)
(0.0996897879 6.85966449e-05 0)
(0.0996930504 6.98557906e-05 0)
(0.0996822808 6.71734379e-05 0)
(0.0996854511 6.84626127e-05 0)
(0.0996749374 6.57075731e-05 0)
(0.0996780156 6.70252507e-05 0)
(0.099667759 6.42019538e-05 0)
(0.0996707457 6.55472085e-05 0)
(0.0996607474 6.26589815e-05 0)
(0.0996636387 6.40306511e-05 0)
(0.0996539035 6.10769031e-05 0)
(0.0996567078 6.24783695e-05 0)
(0.0996472296 5.94636289e-05 0)
(0.0996499116 6.08844843e-05 0)
(0.0996407216 5.77750704e-05 0)
(0.0996433981 5.92734574e-05 0)
(0.0996343844 5.61693453e-05 0)
(0.0996366712 5.75378299e-05 0)
(0.0996281402 5.39453855e-05 0)
(0.0996315277 5.61252029e-05 0)
(0.0996222811 5.32335321e-05 0)
(0.10000433 -4.29109391e-05 0)
(0.100000674 -2.15001478e-05 0)
(0.10001891 -9.62448329e-05 0)
(0.100008627 -7.73323873e-05 0)
(0.100045844 -0.000156422989 0)
(0.100028012 -0.000144503988 0)
(0.100086104 -0.000215726834 0)
(0.100061605 -0.000216528849 0)
(0.100138816 -0.000263186419 0)
(0.100109584 -0.000281961135 0)
(0.100200814 -0.000288051077 0)
(0.100169602 -0.000326974595 0)
(0.100266982 -0.000283728862 0)
(0.100237159 -0.000340641732 0)
(0.100331283 -0.000249487831 0)
(0.100306289 -0.000318624983 0)
(0.100387892 -0.000189776727 0)
(0.100370555 -0.000263429592 0)
(0.100432083 -0.000112536302 0)
(0.10042415 -0.000182629079 0)
(0.100460834 -2.76458869e-05 0)
(0.100462831 -8.67061939e-05 0)
(0.100474504 5.52347989e-05 0)
(0.100484836 1.27554222e-05 0)
(0.100474051 0.00012847533 0)
(0.100490861 0.000105376355 0)
(0.100461143 0.00018644825 0)
(0.100482613 0.000182770523 0)
(0.100438622 0.000225646899 0)
(0.100462601 0.000239605015 0)
(0.100409874 0.000244985814 0)
(0.100434343 0.000273512098 0)
(0.100378337 0.000245329659 0)
(0.100401581 0.000284623447 0)
(0.10034719 0.000228874126 0)
(0.100367878 0.000274869358 0)
(0.100319209 0.000198768265 0)
(0.100336458 0.000247335327 0)
(0.100296646 0.000159162701 0)
(0.100310073 0.000206058761 0)
(0.100281036 0.000115572778 0)
(0.100290821 0.000156382042 0)
(0.100272912 7.50861649e-05 0)
(0.100279872 0.00010547327 0)
(0.100271453 4.58404423e-05 0)
(0.100277073 6.2345149e-05 0)
(0.100274212 3.56950188e-05 0)
(0.100280651 3.68409636e-05 0)
(0.10027717 5.05522094e-05 0)
(0.100287188 3.76204903e-05 0)
(0.100275255 9.28135642e-05 0)
(0.100291905 6.98301338e-05 0)
(0.100263277 0.000160531041 0)
(0.100289245 0.000133629915 0)
(0.1002368 0.000247718632 0)
(0.100273825 0.000224067147 0)
(0.100192763 0.000345692635 0)
(0.100241389 0.000332234665 0)
(0.100129802 0.000444858481 0)
(0.100189422 0.000447195393 0)
(0.10004829 0.000536380823 0)
(0.100117366 0.000558057234 0)
(0.099950095 0.000613362191 0)
(0.100026488 0.000655666394 0)
(0.0998381585 0.000671395783 0)
(0.0999194711 0.000733587938 0)
(0.0997160266 0.000708578214 0)
(0.0997999021 0.000788355878 0)
(0.0995874207 0.000725196725 0)
(0.0996717625 0.000819203171 0)
(0.0994559042 0.000723329223 0)
(0.0995390188 0.000827569707 0)
(0.0993246347 0.000706530916 0)
(0.0994053179 0.000816653772 0)
(0.0991961571 0.000679656934 0)
(0.0992737521 0.000791149686 0)
(0.0990721907 0.000648731985 0)
(0.0991466369 0.000757145174 0)
(0.0989533959 0.000620685657 0)
(0.0990252707 0.000721995873 0)
(0.0988391653 0.000602774681 0)
(0.0989096932 0.000693921647 0)
(0.0987275359 0.000601622935 0)
(0.0987985193 0.000681134686 0)
(0.0986153324 0.00062199505 0)
(0.0986889544 0.000690510591 0)
(0.0984985935 0.000665609231 0)
(0.098577082 0.000726073647 0)
(0.0983732395 0.000730397267 0)
(0.0984584446 0.000787763857 0)
(0.0982358407 0.000810565165 0)
(0.098328832 0.000870978509 0)
(0.0980842993 0.000897590929 0)
(0.0981851042 0.000967197111 0)
(0.0979182661 0.000981982938 0)
(0.0980258343 0.0010656588 0)
(0.0977391777 0.00105533111 0)
(0.0978515866 0.00115568751 0)
(0.0975499001 0.00111204061 0)
(0.0976647431 0.00122899789 0)
(0.0973540788 0.00115022191 0)
(0.0974689261 0.00128128243 0)
(0.0971553865 0.00117150335 0)
(0.0972681915 0.00131261298 0)
(0.096956884 0.00117991682 0)
(0.097066233 0.00132660963 0)
(0.09676066 0.00118032124 0)
(0.0968658211 0.00132876443 0)
(0.0965678033 0.00117693906 0)
(0.0966685983 0.00132457164 0)
(0.0963786428 0.00117245537 0)
(0.0964752199 0.0013181017 0)
(0.0961931143 0.00116784355 0)
(0.0962857143 0.0013113917 0)
(0.0960111002 0.00116278072 0)
(0.0960998903 0.00130465224 0)
(0.0958326416 0.00115633304 0)
(0.0959176466 0.00129698851 0)
(0.0956579964 0.0011475801 0)
(0.0957391128 0.00128722063 0)
(0.0954875819 0.00113597443 0)
(0.095564637 0.0012744737 0)
(0.0953218709 0.0011214048 0)
(0.0953946844 0.00125840484 0)
(0.0951612986 0.00110406052 0)
(0.0952297225 0.00123912516 0)
(0.095006214 0.00108423636 0)
(0.0950701437 0.00121697545 0)
(0.0948568729 0.00106218367 0)
(0.0949162385 0.0011923102 0)
(0.0947134584 0.00103804757 0)
(0.0947682075 0.00116537494 0)
(0.0945761067 0.00101187447 0)
(0.0946261897 0.00113628338 0)
(0.0944449278 0.000983650649 0)
(0.0944902893 0.00110505396 0)
(0.0943200169 0.000953338283 0)
(0.0943605918 0.00107165866 0)
(0.0942014599 0.000920893735 0)
(0.094237172 0.00103605498 0)
(0.094089336 0.000886269823 0)
(0.0941200976 0.000998195629 0)
(0.0939837234 0.000849410584 0)
(0.0940094339 0.000958024264 0)
(0.0938847049 0.000810246302 0)
(0.0939052486 0.000915468336 0)
(0.0937923754 0.000768692093 0)
(0.09380762 0.000870435439 0)
(0.0937068497 0.000724649267 0)
(0.0937166442 0.000822814236 0)
(0.0936282683 0.000678007012 0)
(0.0936324419 0.000772477713 0)
(0.0935568007 0.000628642435 0)
(0.0935551632 0.000719286369 0)
(0.0934926445 0.000576418556 0)
(0.093484989 0.000663090377 0)
(0.0934360144 0.000521188086 0)
(0.0934221287 0.000603731098 0)