/*--------------------------------*- C++ -*----------------------------------*\
| =========                 |                                                 |
| \\      /  F ield         | OpenFOAM: The Open Source CFD Toolbox           |
|  \\    /   O peration     | Version:  v2012                                 |
|   \\  /    A nd           | Website:  www.openfoam.com                      |
|    \\/     M anipulation  |                                                 |
\*---------------------------------------------------------------------------*/
FoamFile
{
    version     2.0;
    format      ascii;
    class       volVectorField;
    location    "2.69";
    object      H;
}
// * * * * * * * * * * * * * * * * * * * * * * * * * * * * * * * * * * * * * //

dimensions      [0 1 -2 0 0 0 0];


internalField   nonuniform List<vector> 
28416
(
(158.371307 -0.0196322493 0)
(158.392635 -0.0495877473 0)
(158.432441 -0.0615188375 0)
(158.477788 -0.0509421359 0)
(158.516898 -0.0181931753 0)
(158.543767 0.0335299655 0)
(158.556905 0.097395846 0)
(158.551763 0.164198165 0)
(158.525315 0.227186398 0)
(158.47913 0.280679078 0)
(158.417065 0.32001227 0)
(158.343933 0.342253037 0)
(158.26493 0.346532514 0)
(158.185155 0.333826244 0)
(158.109273 0.306329163 0)
(158.041338 0.26691708 0)
(157.984683 0.219146534 0)
(157.941665 0.167733805 0)
(157.91321 0.118916712 0)
(157.898293 0.0800242022 0)
(157.893641 0.0580948516 0)
(157.893923 0.0580706883 0)
(157.892434 0.0813887057 0)
(157.881988 0.125564724 0)
(157.856211 0.184932219 0)
(157.811242 0.251980871 0)
(157.74612 0.318588914 0)
(157.662155 0.377376587 0)
(157.562456 0.422594494 0)
(157.451274 0.45050746 0)
(157.333322 0.459461782 0)
(157.21328 0.449764801 0)
(157.095484 0.423481431 0)
(156.983737 0.384227 0)
(156.881135 0.336957731 0)
(156.789811 0.287717501 0)
(156.710584 0.243245633 0)
(156.642581 0.210319162 0)
(156.582938 0.194869943 0)
(156.526856 0.20103795 0)
(156.468292 0.230323398 0)
(156.401156 0.281011964 0)
(156.320553 0.348144666 0)
(156.223619 0.424291645 0)
(156.109853 0.501073508 0)
(155.980946 0.57099446 0)
(155.840174 0.628997292 0)
(155.691528 0.673254842 0)
(155.538801 0.704997592 0)
(155.384897 0.727527959 0)
(155.231512 0.744846012 0)
(155.079204 0.760395982 0)
(154.927753 0.776315415 0)
(154.776621 0.793308834 0)
(154.62533 0.811008949 0)
(154.473671 0.828543537 0)
(154.321736 0.845033391 0)
(154.169818 0.859865012 0)
(154.018296 0.872727589 0)
(153.867533 0.883503716 0)
(153.717842 0.892127303 0)
(153.569485 0.898486758 0)
(153.422705 0.902395972 0)
(153.277749 0.903614366 0)
(153.134886 0.901883531 0)
(152.994415 0.896955604 0)
(152.85666 0.888605849 0)
(152.721977 0.876634603 0)
(152.590745 0.860865794 0)
(152.463371 0.841146308 0)
(152.340293 0.817347551 0)
(152.221983 0.789368801 0)
(152.108945 0.757141275 0)
(152.001722 0.720632113 0)
(151.900893 0.679847671 0)
(151.807077 0.634835648 0)
(151.720945 0.585685427 0)
(151.643218 0.532525562 0)
(151.574691 0.475515156 0)
(151.516281 0.41482324 0)
(151.468977 0.350567567 0)
(151.4336 0.282773458 0)
(151.410665 0.211447724 0)
(151.400468 0.136714837 0)
(151.402503 0.0589256524 0)
(151.417145 -0.0202203643 0)
(151.448558 -0.0992345734 0)
(151.498158 -0.179340202 0)
(151.565288 -0.260887289 0)
(151.649544 -0.34342354 0)
(151.751136 -0.426447409 0)
(151.870086 -0.509412998 0)
(152.006201 -0.591679274 0)
(152.159176 -0.672554032 0)
(152.328552 -0.751314697 0)
(152.51368 -0.827209416 0)
(152.713728 -0.89946599 0)
(152.927686 -0.967309849 0)
(153.154377 -1.02998734 0)
(153.39247 -1.08679237 0)
(153.640498 -1.13709322 0)
(153.896877 -1.18035599 0)
(154.159927 -1.21616217 0)
(154.427897 -1.24421986 0)
(154.698995 -1.26436906 0)
(154.97142 -1.27658187 0)
(155.243391 -1.28095889 0)
(155.513184 -1.27772241 0)
(155.779157 -1.26720657 0)
(156.039779 -1.24984506 0)
(156.293654 -1.22615636 0)
(156.539532 -1.19672722 0)
(156.776325 -1.1621951 0)
(157.003111 -1.12323026 0)
(157.219138 -1.08051847 0)
(157.423818 -1.03474475 0)
(157.616724 -0.986578936 0)
(157.797581 -0.936663212 0)
(157.966252 -0.88560183 0)
(158.122725 -0.833952489 0)
(158.267101 -0.782219664 0)
(158.39958 -0.730850475 0)
(158.520447 -0.680233215 0)
(158.63006 -0.630697839 0)
(158.728832 -0.582518515 0)
(158.817218 -0.535914511 0)
(158.895694 -0.491045188 0)
(158.964773 -0.448008261 0)
(159.025004 -0.406852197 0)
(159.076974 -0.367596876 0)
(159.121277 -0.33024382 0)
(159.158495 -0.294767297 0)
(159.189201 -0.261111868 0)
(159.213974 -0.229214106 0)
(159.233388 -0.199020841 0)
(159.247997 -0.170484543 0)
(159.258332 -0.143556401 0)
(159.26491 -0.11819303 0)
(159.26824 -0.0943765312 0)
(159.268803 -0.0721333015 0)
(159.267019 -0.0515446013 0)
(159.263222 -0.0327520938 0)
(159.257585 -0.0159503267 0)
(159.249908 -0.00121254614 0)
(159.240429 0.0119066781 0)
(159.229275 0.0235694486 0)
(159.216572 0.0338780414 0)
(159.202442 0.0429698793 0)
(159.187037 0.050985401 0)
(159.170538 0.0580450093 0)
(159.153126 0.064249 0)
(159.134959 0.0696846775 0)
(159.116182 0.0744293124 0)
(159.096926 0.0785506258 0)
(159.07731 0.0821074008 0)
(159.057441 0.0851501583 0)
(159.037416 0.0877220508 0)
(159.017315 0.0898601707 0)
(158.997212 0.0915970993 0)
(158.977169 0.0929623884 0)
(158.957238 0.0939837358 0)
(158.937464 0.0946877112 0)
(158.917886 0.0951000629 0)
(158.898536 0.0952457359 0)
(158.879444 0.0951487543 0)
(158.860637 0.0948320417 0)
(158.842137 0.0943172229 0)
(158.823963 0.093624427 0)
(158.806136 0.0927721166 0)
(158.788672 0.0917769599 0)
(158.771584 0.0906537682 0)
(158.754886 0.089415517 0)
(158.738589 0.0880734508 0)
(158.722699 0.0866372666 0)
(158.707227 0.0851153582 0)
(158.692176 0.0835150841 0)
(158.677551 0.0818430276 0)
(158.663355 0.0801052202 0)
(158.64959 0.0783073009 0)
(158.636258 0.0764546004 0)
(158.623359 0.0745521466 0)
(158.610896 0.0726045777 0)
(158.598872 0.07061605 0)
(158.587283 0.0685896489 0)
(158.576152 0.0665285767 0)
(158.565431 0.0644277557 0)
(158.55532 0.0623083037 0)
(158.545194 0.0600474467 0)
(158.537451 0.0581299219 0)
(158.521575 0.0542359745 0)
(158.37287 -0.0428115122 0)
(158.392926 -0.109080258 0)
(158.435456 -0.140596888 0)
(158.488353 -0.131102868 0)
(158.539277 -0.0813215927 0)
(158.578351 0.00283288645 0)
(158.598941 0.109531454 0)
(158.5953 0.223278003 0)
(158.566624 0.331060367 0)
(158.514846 0.422506363 0)
(158.444217 0.49000431 0)
(158.360418 0.529181836 0)
(158.269682 0.538961453 0)
(158.178171 0.521008823 0)
(158.091571 0.478716502 0)
(158.014899 0.416414614 0)
(157.952381 0.339492864 0)
(157.907159 0.255310509 0)
(157.880681 0.173900006 0)
(157.871971 0.107367999 0)
(157.877192 0.0677059287 0)
(157.88988 0.0637690747 0)
(157.901815 0.0985278396 0)
(157.904228 0.168036505 0)
(157.889299 0.262817433 0)
(157.851654 0.370238156 0)
(157.789151 0.476807933 0)
(157.702814 0.570530569 0)
(157.596275 0.642432197 0)
(157.474916 0.687097838 0)
(157.344957 0.702508992 0)
(157.212712 0.689524214 0)
(157.084085 0.65132738 0)
(156.96423 0.593062026 0)
(156.857276 0.521667687 0)
(156.765995 0.445770829 0)
(156.69136 0.375368957 0)
(156.632149 0.321017905 0)
(156.584783 0.292428408 0)
(156.543518 0.296665103 0)
(156.50107 0.336415963 0)
(156.449669 0.408932146 0)
(156.38244 0.506131291 0)
(156.29476 0.616062047 0)
(156.185142 0.72547107 0)
(156.055341 0.822753899 0)
(155.909672 0.900373063 0)
(155.753764 0.95600591 0)
(155.593151 0.992148503 0)
(155.432127 1.01445318 0)
(155.273151 1.02949511 0)
(155.116892 1.04278073 0)
(154.962758 1.05759666 0)
(154.809615 1.07487753 0)
(154.65642 1.09385409 0)
(154.50257 1.11301256 0)
(154.347964 1.13091435 0)
(154.192865 1.1466261 0)
(154.037687 1.15975385 0)
(153.88284 1.17023806 0)
(153.728654 1.17810258 0)
(153.575385 1.18328649 0)
(153.423257 1.18559376 0)
(153.272502 1.18472607 0)
(153.123391 1.18034332 0)
(152.976235 1.17211196 0)
(152.831383 1.15972696 0)
(152.689222 1.1429132 0)
(152.550173 1.12142002 0)
(152.414689 1.0950183 0)
(152.283264 1.06350228 0)
(152.156429 1.02669428 0)
(152.034752 0.984449774 0)
(151.918848 0.936661318 0)
(151.809368 0.883260623 0)
(151.707005 0.82421899 0)
(151.612498 0.759546181 0)
(151.526626 0.689287023 0)
(151.450209 0.613512753 0)
(151.3841 0.532302216 0)
(151.329117 0.445684817 0)
(151.285958 0.353644313 0)
(151.255255 0.256267533 0)
(151.237731 0.15388457 0)
(151.23484 0.0470744093 0)
(151.248799 -0.0632010725 0)
(151.279527 -0.175350509 0)
(151.326937 -0.289591616 0)
(151.392152 -0.405837229 0)
(151.4756 -0.523422893 0)
(151.577512 -0.64160625 0)
(151.698028 -0.759583201 0)
(151.837112 -0.876423374 0)
(151.994541 -0.991103814 0)
(152.169901 -1.10254233 0)
(152.362568 -1.20961714 0)
(152.5717 -1.31119283 0)
(152.796241 -1.40615113 0)
(153.034929 -1.49342216 0)
(153.286303 -1.57201551 0)
(153.548727 -1.64105057 0)
(153.820412 -1.69978407 0)
(154.099444 -1.7476334 0)
(154.38382 -1.7841947 0)
(154.671482 -1.80925448 0)
(154.960364 -1.82279429 0)
(155.24843 -1.82498817 0)
(155.533715 -1.81619337 0)
(155.814361 -1.79693481 0)
(156.088651 -1.76788465 0)
(156.355032 -1.72983808 0)
(156.612137 -1.68368676 0)
(156.858793 -1.63039129 0)
(157.094032 -1.57095379 0)
(157.317088 -1.50639195 0)
(157.52739 -1.43771519 0)
(157.724557 -1.3659036 0)
(157.908379 -1.29189034 0)
(158.078807 -1.21654727 0)
(158.23593 -1.14067379 0)
(158.379962 -1.06498913 0)
(158.511223 -0.990127956 0)
(158.630118 -0.916638755 0)
(158.73712 -0.84498411 0)
(158.832759 -0.775543203 0)
(158.917611 -0.708614736 0)
(158.992281 -0.644418019 0)
(159.0574 -0.583096666 0)
(159.113602 -0.524730546 0)
(159.16152 -0.469350962 0)
(159.2018 -0.416953355 0)
(159.235085 -0.367509673 0)
(159.261989 -0.320971294 0)
(159.283085 -0.277266286 0)
(159.298929 -0.236308657 0)
(159.310067 -0.198022609 0)
(159.317025 -0.16234769 0)
(159.320288 -0.12922262 0)
(159.32028 -0.0985882053 0)
(159.317372 -0.070404236 0)
(159.311848 -0.0446312926 0)
(159.303911 -0.0211860403 0)
(159.293852 8.37725045e-05 0)
(159.282298 0.0191116242 0)
(159.269373 0.0361347008 0)
(159.255059 0.0512709766 0)
(159.239471 0.0646401641 0)
(159.222772 0.0763895294 0)
(159.205095 0.0866805824 0)
(159.186575 0.0956639444 0)
(159.167352 0.103468457 0)
(159.147561 0.110207557 0)
(159.127322 0.115983696 0)
(159.106747 0.120888931 0)
(159.085934 0.125005723 0)
(159.064975 0.128407945 0)
(159.043952 0.131161753 0)
(159.022935 0.133326483 0)
(159.001989 0.134955536 0)
(158.981168 0.136097205 0)
(158.960522 0.136795442 0)
(158.940092 0.137090507 0)
(158.919913 0.137019466 0)
(158.900017 0.13661656 0)
(158.880431 0.135913485 0)
(158.861177 0.134939584 0)
(158.842276 0.133721975 0)
(158.823744 0.132285623 0)
(158.805597 0.130653401 0)
(158.787847 0.128846133 0)
(158.770504 0.126882651 0)
(158.753577 0.124779879 0)
(158.737076 0.122552936 0)
(158.721004 0.120215264 0)
(158.705367 0.117778779 0)
(158.690169 0.115254027 0)
(158.675412 0.112650328 0)
(158.661098 0.109975919 0)
(158.647227 0.107238047 0)
(158.6338 0.104443033 0)
(158.620817 0.101596275 0)
(158.608279 0.0987021614 0)
(158.596187 0.0957640328 0)
(158.584536 0.0927833651 0)
(158.573344 0.0897618432 0)
(158.562555 0.0866886828 0)
(158.552369 0.0835945002 0)
(158.542094 0.0802994612 0)
(158.534227 0.0775276386 0)
(158.517633 0.0720232753 0)
(158.373416 -0.0544290694 0)
(158.394421 -0.140218367 0)
(158.436246 -0.184484382 0)
(158.487047 -0.180868 0)
(158.535403 -0.13039892 0)
(158.5722 -0.0405943737 0)
(158.591867 0.0750271143 0)
(158.588862 0.201511206 0)
(158.561487 0.323453907 0)
(158.51159 0.427889442 0)
(158.443183 0.505764197 0)
(158.361644 0.552003013 0)
(158.27293 0.565280132 0)
(158.183 0.547333194 0)
(158.097423 0.501817602 0)
(158.021139 0.433421404 0)
(157.958325 0.348017988 0)
(157.912105 0.253737499 0)
(157.884021 0.161818877 0)
(157.873363 0.0859744946 0)
(157.876712 0.0398871511 0)
(157.887779 0.0336500705 0)
(157.89809 0.0710998981 0)
(157.898908 0.148904326 0)
(157.882999 0.256980488 0)
(157.845491 0.380961552 0)
(157.784355 0.505282995 0)
(157.700421 0.615915149 0)
(157.59694 0.702168724 0)
(157.478851 0.757442035 0)
(157.351977 0.779120491 0)
(157.222346 0.767989577 0)
(157.095677 0.727548248 0)
(156.977007 0.663515861 0)
(156.870396 0.583622352 0)
(156.778606 0.497526504 0)
(156.702729 0.416537451 0)
(156.641815 0.352780026 0)
(156.592601 0.317627274 0)
(156.549584 0.31962403 0)
(156.505689 0.362414598 0)
(156.453452 0.443351723 0)
(156.386339 0.553445886 0)
(156.299887 0.67893553 0)
(156.19245 0.804206372 0)
(156.065351 0.915286008 0)
(155.922352 1.00285504 0)
(155.768591 1.06382554 0)
(155.609301 1.10104389 0)
(155.448709 1.1213658 0)
(155.289402 1.13292326 0)
(155.132291 1.14260866 0)
(154.977037 1.15457027 0)
(154.822696 1.16999098 0)
(154.668315 1.18788006 0)
(154.513298 1.20629041 0)
(154.357497 1.223378 0)
(154.201107 1.23796805 0)
(154.044488 1.24960688 0)
(153.888014 1.25829637 0)
(153.731996 1.26416175 0)
(153.576679 1.2672247 0)
(153.422279 1.26733124 0)
(153.269022 1.26419096 0)
(153.117173 1.25745483 0)
(152.967041 1.2467777 0)
(152.818985 1.2318462 0)
(152.6734 1.21237926 0)
(152.530721 1.18811884 0)
(152.391418 1.15882394 0)
(152.256004 1.124271 0)
(152.12503 1.08425873 0)
(151.999092 1.03861427 0)
(151.878824 0.987198255 0)
(151.764906 0.929908446 0)
(151.658055 0.866681648 0)
(151.559033 0.797494298 0)
(151.468642 0.722361198 0)
(151.387719 0.641332074 0)
(151.317134 0.554487195 0)
(151.257772 0.461935016 0)
(151.210533 0.363854591 0)
(151.176341 0.260556802 0)
(151.156033 0.152447536 0)
(151.149726 0.0399738358 0)
(151.15947 -0.0765612308 0)
(151.186539 -0.19677027 0)
(151.231436 -0.319966582 0)
(151.294619 -0.445638159 0)
(151.376533 -0.573150484 0)
(151.477608 -0.701685078 0)
(151.598108 -0.830305654 0)
(151.738096 -0.957963338 0)
(151.897439 -1.08350786 0)
(152.07579 -1.20571195 0)
(152.272573 -1.32329395 0)
(152.486964 -1.43494436 0)
(152.71789 -1.53935975 0)
(152.964037 -1.63528119 0)
(153.223856 -1.72153503 0)
(153.495584 -1.79707354 0)
(153.777272 -1.86101197 0)
(154.066824 -1.91265942 0)
(154.362034 -1.95154165 0)
(154.660638 -1.97741477 0)
(154.960362 -1.99026969 0)
(155.258968 -1.99032748 0)
(155.554308 -1.97802662 0)
(155.844362 -1.95400291 0)
(156.127275 -1.91906359 0)
(156.401386 -1.87415691 0)
(156.665249 -1.82033913 0)
(156.917646 -1.75874049 0)
(157.15759 -1.69053173 0)
(157.384325 -1.61689285 0)
(157.597313 -1.53898481 0)
(157.796226 -1.4579252 0)
(157.980922 -1.37476824 0)
(158.151433 -1.2904893 0)
(158.307933 -1.20597356 0)
(158.450728 -1.12200901 0)
(158.580226 -1.03928299 0)
(158.696923 -0.958381927 0)
(158.801381 -0.879793573 0)
(158.894212 -0.803911109 0)
(158.976064 -0.731039504 0)
(159.047598 -0.661404751 0)
(159.109492 -0.595163101 0)
(159.162431 -0.532408625 0)
(159.2071 -0.473180014 0)
(159.244163 -0.417470682 0)
(159.274255 -0.365245271 0)
(159.297999 -0.316446564 0)
(159.316018 -0.270987632 0)
(159.32889 -0.228756079 0)
(159.337139 -0.189616898 0)
(159.341278 -0.153420763 0)
(159.341822 -0.120026541 0)
(159.339253 -0.0892824476 0)
(159.334028 -0.0610488489 0)
(159.326618 -0.0352573973 0)
(159.317487 -0.011906806 0)
(159.306849 0.00910817357 0)
(159.29446 0.0280934556 0)
(159.280357 0.0451153914 0)
(159.264856 0.060261175 0)
(159.248131 0.0736769424 0)
(159.230347 0.0854952784 0)
(159.21166 0.0958477565 0)
(159.19221 0.104869053 0)
(159.172135 0.112684193 0)
(159.151562 0.119406355 0)
(159.130609 0.125139036 0)
(159.109386 0.129976249 0)
(159.087987 0.134002526 0)
(159.066503 0.137293578 0)
(159.045011 0.139917233 0)
(159.023579 0.141934481 0)
(159.002266 0.143400505 0)
(158.981122 0.144365586 0)
(158.96019 0.144875882 0)
(158.939507 0.144974014 0)
(158.919106 0.144699471 0)
(158.899011 0.144088845 0)
(158.879248 0.143175991 0)
(158.859836 0.141992115 0)
(158.840794 0.140565851 0)
(158.822136 0.138923313 0)
(158.803877 0.137088166 0)
(158.786027 0.135081704 0)
(158.768597 0.132922957 0)
(158.751594 0.130628827 0)
(158.735027 0.128214252 0)
(158.718898 0.125692388 0)
(158.703212 0.12307482 0)
(158.687973 0.120371751 0)
(158.67318 0.117592194 0)
(158.658835 0.114744117 0)
(158.644937 0.111834553 0)
(158.631487 0.108869649 0)
(158.618482 0.105854661 0)
(158.605921 0.102793868 0)
(158.593806 0.0996905603 0)
(158.582129 0.0965462266 0)
(158.570906 0.0933631912 0)
(158.560082 0.0901308841 0)
(158.549852 0.0868864196 0)
(158.539552 0.0834432433 0)
(158.531653 0.0805808015 0)
(158.515348 0.0749331071 0)
(158.373448 -0.0698575469 0)
(158.395252 -0.181591944 0)
(158.439805 -0.241001204 0)
(158.495262 -0.238870521 0)
(158.548897 -0.176099813 0)
(158.589237 -0.0619794981 0)
(158.61068 0.0871729808 0)
(158.609529 0.250673885 0)
(158.582203 0.408172634 0)
(158.530121 0.543222972 0)
(158.457676 0.644281377 0)
(158.370733 0.704836003 0)
(158.275854 0.723126941 0)
(158.179684 0.701260232 0)
(158.088495 0.643778988 0)
(158.007889 0.556558125 0)
(157.942594 0.446996033 0)
(157.896105 0.325382387 0)
(157.870051 0.206019021 0)
(157.863415 0.106461436 0)
(157.871979 0.044407937 0)
(157.888893 0.0335370008 0)
(157.906025 0.0794484387 0)
(157.914353 0.177317882 0)
(157.905212 0.31406939 0)
(157.872486 0.471333497 0)
(157.813487 0.629206702 0)
(157.728924 0.769781633 0)
(157.622353 0.879485974 0)
(157.499325 0.950007707 0)
(157.366459 0.978088884 0)
(157.230652 0.964699964 0)
(157.09848 0.914128715 0)
(156.975772 0.833369975 0)
(156.867236 0.731925735 0)
(156.776054 0.621798642 0)
(156.703409 0.517226492 0)
(156.648063 0.433695665 0)
(156.606221 0.38594847 0)
(156.571805 0.385198623 0)
(156.53708 0.436327274 0)
(156.49371 0.536048945 0)
(156.434175 0.672866913 0)
(156.353203 0.829159418 0)
(156.248738 0.985004343 0)
(156.122162 1.12266084 0)
(155.977683 1.23035335 0)
(155.821091 1.30422092 0)
(155.658297 1.34791444 0)
(155.494077 1.37015877 0)
(155.331367 1.38130383 0)
(155.17121 1.39014591 0)
(155.013226 1.40201588 0)
(154.856331 1.41848279 0)
(154.699404 1.43834114 0)
(154.541704 1.45914637 0)
(154.382978 1.47856184 0)
(154.22336 1.49508815 0)
(154.063176 1.50814178 0)
(153.902778 1.51772701 0)
(153.742457 1.52401675 0)
(153.582441 1.52706204 0)
(153.422928 1.52669547 0)
(153.264131 1.52257658 0)
(153.106308 1.51428761 0)
(152.949767 1.50141003 0)
(152.794868 1.48355829 0)
(152.64202 1.46038174 0)
(152.491672 1.43155468 0)
(152.344323 1.39676934 0)
(152.200516 1.35573644 0)
(152.060843 1.30819115 0)
(151.925944 1.25390014 0)
(151.796508 1.19266682 0)
(151.673269 1.12433416 0)
(151.557008 1.04878539 0)
(151.448547 0.965943723 0)
(151.348745 0.875771491 0)
(151.258493 0.778269416 0)
(151.178709 0.673477059 0)
(151.110322 0.561476919 0)
(151.054257 0.442401983 0)
(151.011409 0.316435014 0)
(150.982675 0.183823005 0)
(150.969455 0.044965809 0)
(150.974699 -0.0991915897 0)
(150.998035 -0.247867008 0)
(151.039568 -0.400548252 0)
(151.100311 -0.556519548 0)
(151.181005 -0.714861274 0)
(151.282198 -0.874521836 0)
(151.40429 -1.0343163 0)
(151.547486 -1.19291469 0)
(151.711771 -1.3488565 0)
(151.896878 -1.5005794 0)
(152.102268 -1.64645193 0)
(152.327112 -1.78481216 0)
(152.570281 -1.91401254 0)
(152.830348 -2.03246794 0)
(153.1056 -2.13870507 0)
(153.394064 -2.23141107 0)
(153.693538 -2.30947886 0)
(154.001636 -2.37204627 0)
(154.315842 -2.41852653 0)
(154.633568 -2.44862789 0)
(154.952215 -2.46236121 0)
(155.269234 -2.46003481 0)
(155.582186 -2.44223765 0)
(155.888795 -2.40981203 0)
(156.186987 -2.36381804 0)
(156.474927 -2.30549233 0)
(156.751044 -2.23620365 0)
(157.014042 -2.15740779 0)
(157.262897 -2.07060379 0)
(157.496861 -1.97729365 0)
(157.71544 -1.87894649 0)
(157.918378 -1.77696821 0)
(158.105633 -1.67267702 0)
(158.277354 -1.56728502 0)
(158.433847 -1.46188519 0)
(158.575556 -1.35744373 0)
(158.703034 -1.25479706 0)
(158.816916 -1.15465304 0)
(158.9179 -1.05759542 0)
(159.006726 -0.964090637 0)
(159.084161 -0.874496043 0)
(159.150985 -0.789068389 0)
(159.207979 -0.707973535 0)
(159.255913 -0.631298855 0)
(159.295538 -0.559068298 0)
(159.327582 -0.491253524 0)
(159.352749 -0.427775483 0)
(159.371711 -0.368512686 0)
(159.385105 -0.313321574 0)
(159.393541 -0.2620492 0)
(159.39761 -0.214525581 0)
(159.397845 -0.170571794 0)
(159.394729 -0.130031371 0)
(159.388688 -0.0928050668 0)
(159.379992 -0.0588012151 0)
(159.368763 -0.0278689008 0)
(159.355344 0.00015957295 0)
(159.340539 0.0252425003 0)
(159.324453 0.0475897832 0)
(159.307095 0.0674947373 0)
(159.288615 0.0851431598 0)
(159.269182 0.100714243 0)
(159.248943 0.114383437 0)
(159.228032 0.126313485 0)
(159.206576 0.136660289 0)
(159.184693 0.145569734 0)
(159.16249 0.153175041 0)
(159.140067 0.159598153 0)
(159.117513 0.164950917 0)
(159.094905 0.169335516 0)
(159.072317 0.172844886 0)
(159.049812 0.175563244 0)
(159.027448 0.177566739 0)
(159.005275 0.178924179 0)
(158.98334 0.179697779 0)
(158.961681 0.179943895 0)
(158.940333 0.179713736 0)
(158.919324 0.179053988 0)
(158.898679 0.17800733 0)
(158.878419 0.176612855 0)
(158.858561 0.174906391 0)
(158.839119 0.172920758 0)
(158.820103 0.170685964 0)
(158.801524 0.168229378 0)
(158.783389 0.16557587 0)
(158.765702 0.162747952 0)
(158.748469 0.159765913 0)
(158.731693 0.156647954 0)
(158.715376 0.153410327 0)
(158.699519 0.15006747 0)
(158.684123 0.146632137 0)
(158.669187 0.14311552 0)
(158.654712 0.139527363 0)
(158.640695 0.13587606 0)
(158.627136 0.132168723 0)
(158.614032 0.128411239 0)
(158.601381 0.124608244 0)
(158.589182 0.120763253 0)
(158.577427 0.116877803 0)
(158.56613 0.112954913 0)
(158.555229 0.108982401 0)
(158.544922 0.10500732 0)
(158.534503 0.100802991 0)
(158.52651 0.0973235438 0)
(158.50968 0.0904547256 0)
(158.373661 -0.0849142372 0)
(158.395775 -0.222303895 0)
(158.440245 -0.298828865 0)
(158.495327 -0.303741079 0)
(158.548886 -0.237424561 0)
(158.590829 -0.109783017 0)
(158.613971 0.060604856 0)
(158.6136 0.249119677 0)
(158.586518 0.431638508 0)
(158.534756 0.588725629 0)
(158.462463 0.706932741 0)
(158.375383 0.778716768 0)
(158.280028 0.801908577 0)
(158.183022 0.778684516 0)
(158.090659 0.713999503 0)
(158.008604 0.614381653 0)
(157.941675 0.488186314 0)
(157.893503 0.347189069 0)
(157.86593 0.207911167 0)
(157.858302 0.0908075767 0)
(157.867274 0.0167144167 0)
(157.88641 0.00133811408 0)
(157.905497 0.0512770518 0)
(157.914626 0.162197475 0)
(157.90619 0.319409425 0)
(157.874639 0.501582585 0)
(157.817268 0.685501252 0)
(157.734572 0.850161291 0)
(157.629849 0.97952529 0)
(157.508418 1.06366972 0)
(157.376748 1.09858698 0)
(157.241675 1.08522251 0)
(157.109785 1.02838468 0)
(156.986959 0.936006992 0)
(156.877989 0.818910545 0)
(156.786201 0.690829466 0)
(156.713049 0.568147595 0)
(156.6577 0.4687362 0)
(156.616652 0.40970357 0)
(156.583768 0.404289172 0)
(156.551029 0.458581068 0)
(156.509846 0.569291168 0)
(156.452557 0.723561092 0)
(156.373783 0.90116586 0)
(156.271341 1.07882555 0)
(156.146428 1.23549349 0)
(156.003072 1.35697377 0)
(155.846971 1.43841202 0)
(155.684059 1.48396624 0)
(155.519232 1.50398486 0)
(155.355578 1.51089426 0)
(155.194269 1.51534457 0)
(155.035007 1.52384763 0)
(154.87673 1.53836462 0)
(154.718299 1.55746865 0)
(154.558929 1.57820046 0)
(154.398324 1.59771673 0)
(154.236582 1.61419556 0)
(154.073997 1.6269456 0)
(153.910898 1.63601002 0)
(153.747556 1.64165095 0)
(153.584175 1.64398699 0)
(153.420933 1.64286847 0)
(153.258028 1.6379289 0)
(153.095702 1.62870113 0)
(152.934259 1.61471245 0)
(152.774061 1.59552799 0)
(152.615527 1.57075308 0)
(152.459128 1.54001964 0)
(152.305385 1.5029759 0)
(152.154873 1.45928577 0)
(152.008219 1.40863534 0)
(151.866101 1.35074103 0)
(151.729245 1.28535633 0)
(151.598423 1.21227595 0)
(151.474448 1.1313381 0)
(151.358176 1.04242592 0)
(151.250504 0.945468632 0)
(151.152362 0.840443028 0)
(151.06472 0.727376377 0)
(150.988574 0.606353064 0)
(150.924947 0.477525177 0)
(150.874897 0.341131523 0)
(150.839502 0.197534624 0)
(150.819646 0.0472110024 0)
(150.818297 -0.109596404 0)
(150.835848 -0.272334263 0)
(150.872585 -0.440215668 0)
(150.929474 -0.612419549 0)
(151.007383 -0.787973591 0)
(151.107074 -0.965702083 0)
(151.229136 -1.14424109 0)
(151.373948 -1.3220501 0)
(151.541642 -1.49742514 0)
(151.732068 -1.66852353 0)
(151.944767 -1.83339895 0)
(152.178935 -1.99004674 0)
(152.433415 -2.13645934 0)
(152.706686 -2.2706893 0)
(152.996876 -2.39091595 0)
(153.301787 -2.49551186 0)
(153.618935 -2.58310423 0)
(153.945604 -2.65262709 0)
(154.278917 -2.70336091 0)
(154.615903 -2.73495721 0)
(154.953585 -2.74744678 0)
(155.28905 -2.74123146 0)
(155.619526 -2.71706064 0)
(155.942443 -2.67599432 0)
(156.255489 -2.6193559 0)
(156.556646 -2.54867776 0)
(156.844215 -2.46564342 0)
(157.116832 -2.37202949 0)
(157.37346 -2.26965022 0)
(157.613383 -2.16030732 0)
(157.836183 -2.04574634 0)
(158.04171 -1.92762068 0)
(158.230056 -1.80746372 0)
(158.40152 -1.68666884 0)
(158.556568 -1.56647666 0)
(158.695809 -1.44796902 0)
(158.819958 -1.33206841 0)
(158.929807 -1.219542 0)
(159.026204 -1.11100893 0)
(159.110028 -1.00695037 0)
(159.182172 -0.907721519 0)
(159.243522 -0.813565216 0)
(159.294956 -0.724626294 0)
(159.337322 -0.640965219 0)
(159.371442 -0.562570686 0)
(159.3981 -0.489372116 0)
(159.418038 -0.421252655 0)
(159.431955 -0.358061568 0)
(159.44051 -0.299624112 0)
(159.444311 -0.24574595 0)
(159.44391 -0.196228136 0)
(159.439803 -0.150872589 0)
(159.432413 -0.109464977 0)
(159.422143 -0.0717841851 0)
(159.409511 -0.0376018401 0)
(159.395074 -0.00666722486 0)
(159.379461 0.0212653234 0)
(159.362442 0.0464746495 0)
(159.344049 0.0690344102 0)
(159.324497 0.0891042843 0)
(159.303969 0.106867779 0)
(159.282628 0.122498813 0)
(159.260619 0.136168476 0)
(159.238074 0.148040327 0)
(159.215117 0.158270454 0)
(159.191856 0.167006555 0)
(159.168392 0.174385813 0)
(159.14482 0.180534647 0)
(159.121224 0.185569239 0)
(159.097678 0.18959601 0)
(159.074252 0.192712221 0)
(159.051003 0.19500668 0)
(159.027981 0.196560414 0)
(159.00523 0.197447308 0)
(158.982785 0.197734671 0)
(158.960677 0.197483794 0)
(158.938931 0.196750437 0)
(158.91757 0.195585303 0)
(158.89661 0.194034443 0)
(158.876069 0.192139652 0)
(158.85596 0.189938815 0)
(158.836292 0.187466224 0)
(158.817076 0.184752857 0)
(158.798319 0.181826627 0)
(158.780027 0.178712607 0)
(158.762204 0.17543324 0)
(158.744854 0.172008549 0)
(158.727978 0.168456344 0)
(158.711577 0.164792413 0)
(158.695651 0.161030722 0)
(158.680199 0.15718359 0)
(158.665218 0.153261847 0)
(158.650706 0.14927497 0)
(158.636659 0.145231185 0)
(158.623075 0.141137534 0)
(158.609949 0.136999913 0)
(158.597276 0.132823043 0)
(158.585056 0.128610624 0)
(158.573277 0.124364444 0)
(158.561952 0.120088374 0)
(158.55102 0.115769971 0)
(158.540676 0.111463659 0)
(158.530235 0.106924566 0)
(158.522214 0.103200059 0)
(158.505621 0.0958743553 0)
(158.373866 -0.100303512 0)
(158.396979 -0.263671366 0)
(158.443242 -0.35602816 0)
(158.500535 -0.364464504 0)
(158.556029 -0.289192649 0)
(158.598494 -0.141576674 0)
(158.621263 0.0562037786 0)
(158.621927 0.276011053 0)
(158.595468 0.489725391 0)
(158.543161 0.674253541 0)
(158.469291 0.813641175 0)
(158.379835 0.898887326 0)
(158.281624 0.927261734 0)
(158.1817 0.90113103 0)
(158.086795 0.826165046 0)
(158.002983 0.70994185 0)
(157.935417 0.56222701 0)
(157.887935 0.39680331 0)
(157.862399 0.232986208 0)
(157.857902 0.0946556541 0)
(157.869797 0.00609330739 0)
(157.890868 -0.013900256 0)
(157.912395 0.0424449151 0)
(157.92596 0.170497749 0)
(157.921764 0.353350417 0)
(157.893278 0.566282732 0)
(157.837606 0.782092579 0)
(157.755254 0.976021276 0)
(157.649671 1.12908546 0)
(157.526464 1.22946604 0)
(157.392488 1.27228947 0)
(157.255024 1.25849262 0)
(157.121122 1.19353432 0)
(156.997093 1.08652666 0)
(156.888078 0.949969205 0)
(156.797577 0.799792808 0)
(156.726893 0.65510685 0)
(156.674736 0.536949493 0)
(156.637221 0.465613999 0)
(156.608112 0.456864935 0)
(156.57941 0.518124994 0)
(156.542461 0.645784014 0)
(156.489327 0.824855343 0)
(156.414176 1.03163589 0)
(156.3144 1.23883132 0)
(156.19099 1.42171611 0)
(156.047982 1.56351614 0)
(155.891225 1.658358 0)
(155.72688 1.7109411 0)
(155.560083 1.73328626 0)
(155.39414 1.73994749 0)
(155.230391 1.74348868 0)
(155.068632 1.75167755 0)
(154.907827 1.76695354 0)
(154.746809 1.787752 0)
(154.58473 1.81066313 0)
(154.421225 1.83237041 0)
(154.256324 1.85073124 0)
(154.09027 1.86492496 0)
(153.923348 1.87500118 0)
(153.755791 1.88127814 0)
(153.587771 1.88391386 0)
(153.419439 1.88275343 0)
(153.250964 1.87738461 0)
(153.082569 1.86727177 0)
(152.914543 1.85186719 0)
(152.747244 1.83066232 0)
(152.58109 1.80319125 0)
(152.416562 1.76901555 0)
(152.254197 1.72771314 0)
(152.094593 1.67887828 0)
(151.938411 1.6221294 0)
(151.786367 1.55711873 0)
(151.639237 1.48353956 0)
(151.497848 1.40113005 0)
(151.363078 1.30967446 0)
(151.23585 1.20900338 0)
(151.11713 1.09899394 0)
(151.007918 0.979571016 0)
(150.909252 0.850710134 0)
(150.822203 0.712442916 0)
(150.747876 0.564864907 0)
(150.687405 0.408146781 0)
(150.64197 0.242541031 0)
(150.612863 0.0684024469 0)
(150.603458 -0.11363492 0)
(150.61425 -0.302870426 0)
(150.645215 -0.498528778 0)
(150.697549 -0.699644384 0)
(150.772372 -0.905042106 0)
(150.870668 -1.11333615 0)
(150.993247 -1.32292082 0)
(151.140709 -1.53196594 0)
(151.313381 -1.73842886 0)
(151.511266 -1.94008445 0)
(151.734 -2.13456922 0)
(151.98081 -2.31943849 0)
(152.250484 -2.49223539 0)
(152.541371 -2.65056901 0)
(152.85138 -2.79219769 0)
(153.178014 -2.91511321 0)
(153.518418 -3.01762002 0)
(153.86945 -3.098404 0)
(154.227761 -3.1565857 0)
(154.589894 -3.19175355 0)
(154.95238 -3.20397514 0)
(155.31184 -3.19378573 0)
(155.665076 -3.16215595 0)
(156.009149 -3.11044153 0)
(156.341446 -3.04031973 0)
(156.659722 -2.95371706 0)
(156.96213 -2.85273352 0)
(157.247228 -2.73956773 0)
(157.513972 -2.61644673 0)
(157.761701 -2.48556358 0)
(157.990099 -2.3490244 0)
(158.19916 -2.20880597 0)
(158.38915 -2.06672399 0)
(158.560561 -1.92441165 0)
(158.714062 -1.78330726 0)
(158.850471 -1.64465002 0)
(158.970706 -1.50948249 0)
(159.075754 -1.37865829 0)
(159.166646 -1.25285382 0)
(159.244429 -1.13258284 0)
(159.310146 -1.01821252 0)
(159.364819 -0.909980193 0)
(159.40944 -0.808010299 0)
(159.444962 -0.712331126 0)
(159.472284 -0.622891166 0)
(159.492259 -0.53957432 0)