/*--------------------------------*- C++ -*----------------------------------*\
| =========                 |                                                 |
| \\      /  F ield         | OpenFOAM: The Open Source CFD Toolbox           |
|  \\    /   O peration     | Version:  v2012                                 |
|   \\  /    A nd           | Website:  www.openfoam.com                      |
|    \\/     M anipulation  |                                                 |
\*---------------------------------------------------------------------------*/
FoamFile
{
    version     2.0;
    format      ascii;
    class       volScalarField;
    location    "2.69";
    object      p;
}
// * * * * * * * * * * * * * * * * * * * * * * * * * * * * * * * * * * * * * //

dimensions      [0 2 -2 0 0 0 0];


internalField   nonuniform List<scalar> 
28416
(
-0.0136665755
-0.0136678977
-0.013670819
-0.0136752053
-0.0136809342
-0.0136882715
-0.0136962496
-0.0137055911
-0.0137163507
-0.0137285129
-0.0137420597
-0.0137569418
-0.0137731007
-0.0137904671
-0.0138089572
-0.013828473
-0.0138489024
-0.0138701213
-0.0138919969
-0.0139143905
-0.0139371569
-0.0139601468
-0.0139832168
-0.0140062504
-0.0140291388
-0.014051678
-0.0140736987
-0.0140950311
-0.014115488
-0.0141348715
-0.0141529733
-0.0141695773
-0.0141844625
-0.0141974059
-0.0142081866
-0.0142165884
-0.0142224015
-0.0142254231
-0.0142254544
-0.0142222969
-0.0142157501
-0.0142056111
-0.0141916775
-0.0141737537
-0.0141516575
-0.0141252265
-0.0140943223
-0.0140588316
-0.0140186667
-0.0139737638
-0.0139240828
-0.0138696061
-0.0138103381
-0.0137463049
-0.0136775544
-0.0136041555
-0.0135261984
-0.0134437927
-0.0133570671
-0.0132661669
-0.013171253
-0.0130724994
-0.0129700918
-0.0128642251
-0.0127551015
-0.0126429289
-0.0125279184
-0.0124102827
-0.0122902344
-0.012167984
-0.012043739
-0.0119177023
-0.0117900714
-0.0116610375
-0.011530785
-0.0113994912
-0.0112673263
-0.0111344544
-0.0110010357
-0.0108672315
-0.0107332143
-0.0105991228
-0.0104650669
-0.0103311304
-0.010197371
-0.0100638587
-0.00993041679
-0.00979748652
-0.00966514745
-0.00953344446
-0.00940247617
-0.00927233387
-0.00914309336
-0.00901482747
-0.00888760619
-0.00876149423
-0.00863655101
-0.00851283045
-0.00839038028
-0.00826924147
-0.00814944756
-0.00803102422
-0.00791398882
-0.0077983502
-0.00768410852
-0.00757125542
-0.00745977429
-0.00734964076
-0.00724082337
-0.00713328434
-0.00702698047
-0.00692186408
-0.0068178841
-0.00671498701
-0.0066131178
-0.00651222092
-0.00641224106
-0.0063131239
-0.00621481673
-0.00611726896
-0.00602043261
-0.00592426264
-0.00582871718
-0.0057337575
-0.00563934807
-0.00554545658
-0.00545205407
-0.0053591152
-0.0052666179
-0.00517454197
-0.00508286788
-0.00499157641
-0.00490064901
-0.00481006844
-0.00471981964
-0.0046298898
-0.004540267
-0.0044509402
-0.00436189899
-0.00427313236
-0.00418462683
-0.00409636449
-0.00400832074
-0.00392046451
-0.00383282611
-0.00374537348
-0.00365813194
-0.00357110019
-0.00348427491
-0.00339765244
-0.00331122836
-0.00322499715
-0.00313895277
-0.00305308972
-0.00296740289
-0.00288188726
-0.00279653783
-0.00271134957
-0.00262631745
-0.00254143642
-0.00245670147
-0.00237210756
-0.00228764968
-0.00220332287
-0.00211912218
-0.0020350427
-0.00195107955
-0.00186722787
-0.00178348282
-0.00169983959
-0.00161629338
-0.00153283942
-0.00144947297
-0.00136618928
-0.00128298365
-0.00119985141
-0.00111678791
-0.00103378852
-0.000950848689
-0.00086796388
-0.000785129606
-0.00070234144
-0.000619595021
-0.000536886127
-0.000454210395
-0.000371564543
-0.000288942514
-0.000206349885
-0.000123758717
-4.12882298e-05
-0.0136607255
-0.0136617925
-0.0136645633
-0.0136689984
-0.0136748531
-0.0136819843
-0.0136907212
-0.0137007341
-0.0137120373
-0.0137246419
-0.0137385454
-0.0137537306
-0.0137701516
-0.0137877448
-0.0138064341
-0.0138261315
-0.0138467377
-0.0138681433
-0.0138902314
-0.0139128779
-0.0139359552
-0.0139593279
-0.0139828548
-0.0140063966
-0.0140298032
-0.0140528996
-0.0140755075
-0.0140974453
-0.0141185236
-0.0141385445
-0.0141573026
-0.0141745854
-0.014190176
-0.0142038537
-0.0142153956
-0.0142245772
-0.0142311726
-0.0142349552
-0.0142357004
-0.0142331869
-0.0142271992
-0.0142175319
-0.0142039922
-0.0141863992
-0.0141645847
-0.0141383949
-0.0141076936
-0.0140723641
-0.0140323119
-0.0139874655
-0.0139377777
-0.013883226
-0.0138238128
-0.0137595649
-0.0136905333
-0.0136167919
-0.0135384362
-0.0134555826
-0.0133683661
-0.013276939
-0.0131814691
-0.0130821376
-0.0129791369
-0.0128726684
-0.0127629403
-0.0126501658
-0.0125345605
-0.0124163413
-0.0122957237
-0.0121729212
-0.0120481428
-0.0119215928
-0.0117934692
-0.0116639632
-0.0115332588
-0.0114015325
-0.0112689535
-0.0111356842
-0.0110018812
-0.0108676955
-0.0107332699
-0.010598725
-0.0104641591
-0.0103296637
-0.0101953383
-0.0100612595
-0.00992756151
-0.00979427555
-0.00966154327
-0.00952945911
-0.00939810523
-0.00926756957
-0.00913793519
-0.00900928004
-0.00888167865
-0.00875520132
-0.00862991344
-0.00850587483
-0.00838313904
-0.00826175255
-0.00814175387
-0.00802317286
-0.00790603019
-0.00779033687
-0.00767609405
-0.00756329315
-0.00745191607
-0.00734193584
-0.00723331734
-0.00712601831
-0.00701999035
-0.0069151802
-0.00681153095
-0.00670898317
-0.00660747614
-0.0065069489
-0.00640734117
-0.00630859418
-0.00621065137
-0.00611345891
-0.00601696609
-0.00592112566
-0.00582589392
-0.00573123077
-0.00563709979
-0.00554346819
-0.00545030649
-0.00535758804
-0.00526528874
-0.00517338695
-0.00508186329
-0.00499070009
-0.00489988101
-0.00480939184
-0.00471921953
-0.00462935205
-0.00453977824
-0.00445048725
-0.00436146801
-0.00427270935
-0.00418419979
-0.00409592786
-0.00400788673
-0.00392005497
-0.00383245156
-0.00374505348
-0.00365785781
-0.00357086542
-0.00348407394
-0.00339747956
-0.00331107861
-0.0032248668
-0.00313883919
-0.00305299082
-0.0029673168
-0.00288181233
-0.00279647261
-0.00271129283
-0.00262626815
-0.00254139375
-0.00245666476
-0.00237207631
-0.00228762352
-0.0022033015
-0.00211910537
-0.00203503026
-0.00195107133
-0.00186722371
-0.00178348259
-0.00169984316
-0.00161630065
-0.00153285028
-0.00144948732
-0.00136620704
-0.00128300476
-0.00119987581
-0.00111681554
-0.00103381934
-0.000950882636
-0.00086800089
-0.000785169586
-0.000702384254
-0.000619640469
-0.000536933907
-0.000454260025
-0.000371615268
-0.000288992835
-0.000206397467
-0.000123796561
-4.13103682e-05
-0.0136542033
-0.0136553947
-0.0136582495
-0.0136627296
-0.0136686303
-0.013675871
-0.0136844832
-0.013694526
-0.0137059535
-0.013718743
-0.0137328695
-0.0137483029
-0.0137649966
-0.0137828888
-0.0138019051
-0.01382196
-0.013842956
-0.0138647846
-0.0138873272
-0.0139104567
-0.0139340402
-0.0139579562
-0.0139820766
-0.0140062282
-0.0140302582
-0.0140540105
-0.0140773146
-0.0140999895
-0.014121845
-0.0141426813
-0.0141622889
-0.0141804502
-0.0141969409
-0.0142115315
-0.0142239889
-0.0142340785
-0.0142415668
-0.0142462236
-0.0142478226
-0.0142461407
-0.0142409583
-0.0142320601
-0.0142192382
-0.0142022975
-0.0141810595
-0.0141553643
-0.0141250725
-0.0140900656
-0.0140502473
-0.0140055447
-0.0139559096
-0.0139013188
-0.0138417752
-0.0137773071
-0.0137079681
-0.0136338359
-0.0135550113
-0.0134716167
-0.0133837944
-0.0132917045
-0.0131955231
-0.0130954401
-0.0129916566
-0.0128843827
-0.0127738353
-0.0126602358
-0.0125438075
-0.0124247739
-0.0123033565
-0.0121797736
-0.0120542385
-0.0119269588
-0.0117981347
-0.0116679591
-0.0115366165
-0.0114042836
-0.0112711283
-0.0111373109
-0.0110029833
-0.0108682894
-0.0107333636
-0.0105983282
-0.0104632944
-0.0103283637
-0.0101936208
-0.0100591616
-0.00992505444
-0.00979142208
-0.00965835281
-0.00952593576
-0.00939426142
-0.00926341701
-0.00913348538
-0.00900454622
-0.00887667627
-0.00874994852
-0.00862443145
-0.00850018823
-0.00837727578
-0.00825574377
-0.00813563358
-0.00801697739
-0.0078997975
-0.00778410568
-0.00766990301
-0.00755717983
-0.00744591614
-0.00733608221
-0.00722763947
-0.00712054168
-0.00701473609
-0.00691016489
-0.00680676659
-0.00670447736
-0.0066032323
-0.00650296666
-0.0064036168
-0.00630512108
-0.0062074206
-0.00611045963
-0.0060141861
-0.00591855183
-0.00582351265
-0.0057290283
-0.00563506238
-0.00554158215
-0.00544855825
-0.00535596447
-0.00526377748
-0.00517197632
-0.00508054202
-0.00498945749
-0.00489870758
-0.00480827853
-0.00471815807
-0.00462833457
-0.0045387972
-0.00444953748
-0.00436054668
-0.00427181543
-0.00418333624
-0.00409510126
-0.00400706912
-0.00391926989
-0.00383167773
-0.00374429495
-0.00365711897
-0.00357014649
-0.00348337458
-0.00339679937
-0.00331041683
-0.00322422283
-0.00313821285
-0.00305238218
-0.00296672603
-0.00288123962
-0.00279591811
-0.0027107566
-0.00262575019
-0.00254089395
-0.00245618298
-0.00237161235
-0.00228717717
-0.00220287255
-0.00211869362
-0.00203463555
-0.0019506935
-0.00186686265
-0.00178313818
-0.00169951532
-0.00161598928
-0.0015325553
-0.00144920863
-0.00136594456
-0.00128275837
-0.0011996454
-0.00111660098
-0.00103362048
-0.000950699323
-0.000867832939
-0.000785016794
-0.000702246388
-0.00061951725
-0.000536824996
-0.000454165
-0.000371533619
-0.00028892409
-0.000206341486
-0.000123755672
-4.12903306e-05
-0.0136454719
-0.0136466454
-0.0136495339
-0.0136541146
-0.0136601759
-0.0136676596
-0.013676684
-0.0136870792
-0.0136988804
-0.0137120457
-0.0137265568
-0.0137423827
-0.0137594747
-0.0137777729
-0.0137972078
-0.0138176996
-0.0138391589
-0.0138614874
-0.0138845815
-0.0139083337
-0.0139326291
-0.0139572901
-0.0139820754
-0.0140069922
-0.0140318866
-0.0140565681
-0.0140808509
-0.0141045472
-0.0141274622
-0.0141493926
-0.0141701257
-0.0141894402
-0.0142071071
-0.0142228908
-0.0142365514
-0.0142478456
-0.0142565297
-0.0142623609
-0.0142651009
-0.0142645176
-0.0142603828
-0.0142524717
-0.0142405664
-0.0142244622
-0.0142039717
-0.0141789269
-0.0141491805
-0.0141146072
-0.014075105
-0.014030597
-0.0139810322
-0.0139263869
-0.0138666646
-0.0138018963
-0.0137321396
-0.0136574781
-0.0135780197
-0.0134938954
-0.0134052572
-0.0133122757
-0.0132151383
-0.0131140462
-0.0130092122
-0.0129008577
-0.0127892107
-0.0126745025
-0.0125569659
-0.012436833
-0.0123143328
-0.0121896899
-0.012063123
-0.0119348435
-0.0118050549
-0.0116739518
-0.0115417196
-0.0114085344
-0.0112745627
-0.011139962
-0.0110048801
-0.0108694558
-0.010733818
-0.0105980853
-0.0104623664
-0.0103267636
-0.0101913748
-0.0100562838
-0.00992158428
-0.00978736185
-0.00965371575
-0.00952073646
-0.00938851032
-0.00925712415
-0.00912666361
-0.00899721227
-0.00886885136
-0.00874165928
-0.00861571058
-0.00849107482
-0.00836781535
-0.00824598802
-0.00812563973
-0.00800680733
-0.00788951649
-0.00777378104
-0.00765960246
-0.00754696996
-0.00743586077
-0.00732624097
-0.00721806657
-0.00711128484
-0.00700583589
-0.00690165432
-0.00679867093
-0.00669681431
-0.00659601234
-0.00649619358
-0.00639728841
-0.00629922995
-0.00620195485
-0.00610540377
-0.00600952179
-0.00591425854
-0.00581956828
-0.00572540976
-0.0056317461
-0.00553854456
-0.00544577616
-0.00535341539
-0.00526143977
-0.00516982944
-0.00507856687
-0.00498763661
-0.00489702502
-0.00480671978
-0.00471670983
-0.004626985
-0.00453753608
-0.00444835298
-0.00435942611
-0.00427074334
-0.00418229441
-0.00409409964
-0.00400613061
-0.00391837707
-0.00383083295
-0.0037434936
-0.00365635829
-0.00356942413
-0.00348268779
-0.00339614562
-0.00330979369
-0.00322362792
-0.00313764403
-0.00305183754
-0.00296620391
-0.00288073856
-0.00279543691
-0.00271029433
-0.00262530613
-0.00254046762
-0.00245577402
-0.00237122055
-0.00228680238
-0.00220251465
-0.00211835252
-0.00203431112
-0.00195038563
-0.00186657121
-0.00178286302
-0.00169925629
-0.00161574622
-0.00153232806
-0.00144899709
-0.00136574858
-0.00128257783
-0.00119948019
-0.00111645101
-0.00103348566
-0.000950579546
-0.000867728093
-0.000784926736
-0.000702170937
-0.000619456171
-0.00053677798
-0.000454131634
-0.000371513357
-0.00028891602
-0.000206344288
-0.000123764929
-4.13009256e-05
-0.0136347239
-0.0136359208
-0.0136388621
-0.0136435298
-0.0136497159
-0.0136573499
-0.0136664004
-0.0136770293
-0.0136890979
-0.013702588
-0.0137174667
-0.0137336977
-0.0137512359
-0.0137700229
-0.0137899904
-0.0138110604
-0.013833144
-0.0138561408
-0.0138799377
-0.0139044097
-0.0139294412
-0.0139550495
-0.0139809448
-0.0140070135
-0.0140330542
-0.0140589231
-0.0140844459
-0.0141094364
-0.0141336993
-0.0141570283
-0.0141792065
-0.0142000071
-0.0142191941
-0.0142365237
-0.0142517465
-0.0142646088
-0.0142748558
-0.0142822315
-0.0142864791
-0.0142873417
-0.0142845698
-0.0142779266
-0.0142671887
-0.0142521465
-0.0142326055
-0.0142083886
-0.014179339
-0.0141453221
-0.0141062283
-0.0140619745
-0.0140125053
-0.0139577945
-0.0138978457
-0.0138326926
-0.013762398
-0.0136870532
-0.0136067756
-0.0135217078
-0.0134320142
-0.0133378798
-0.0132395064
-0.0131371104
-0.0130309201
-0.0129211719
-0.0128081082
-0.0126919744
-0.0125730161
-0.0124514766
-0.0123275955
-0.012201606
-0.0120737339
-0.0119441962
-0.0118132004
-0.0116809435
-0.0115476119
-0.0114133814
-0.0112784169
-0.0111428732
-0.0110068945
-0.0108706153
-0.0107341604
-0.0105976451
-0.0104611766
-0.0103248535
-0.0101887669
-0.010053009
-0.00991766563
-0.00978282807
-0.00964858318
-0.00951501801
-0.00938222027
-0.00925027757
-0.0091192771
-0.0089893055
-0.00886044843
-0.00873278971
-0.00860641019
-0.00848138621
-0.0083577881
-0.0082356784
-0.0081151101
-0.007996125
-0.00787875239
-0.00776300796
-0.00764889324
-0.00753639554
-0.00742548837
-0.0073161324
-0.00720827683
-0.00710186108
-0.0069968167
-0.00689306941
-0.00679054116
-0.00668915202
-0.006588822
-0.00648947255
-0.00639102786
-0.00629341587
-0.00619656905
-0.00610042484
-0.00600492599
-0.00591002065
-0.0058156623
-0.0057218095
-0.00562842571
-0.00553547882
-0.00544294081
-0.00535078724
-0.00525899691
-0.00516755136
-0.00507643457
-0.00498563247
-0.00489513265
-0.004804924
-0.00471499652
-0.00462534084
-0.0045359481
-0.0044468101
-0.00435791938
-0.004269268
-0.00418082612
-0.00409269041
-0.00400476089
-0.00391703941
-0.00382952807
-0.00374222352
-0.00365512281
-0.00356822276
-0.00348151989
-0.00339501055
-0.00330869088
-0.00322255688
-0.00313660443
-0.00305082924
-0.00296522685
-0.00287979269
-0.00279452211
-0.00270941039
-0.00262445274
-0.0025396444
-0.00245498056
-0.00237045643
-0.00228606721
-0.0022018081
-0.00211767428
-0.00203366097
-0.00194976338
-0.0018659767
-0.00178229614
-0.00169871693
-0.00161523428
-0.00153184343
-0.00144853965
-0.00136531819
-0.00128217435
-0.00119910345
-0.0011161008
-0.00103316177
-0.000950281726
-0.000867456091
-0.000784680274
-0.000701949708
-0.000619259839
-0.000536606169
-0.000453983921
-0.000371389272
-0.000288815164
-0.000206266528
-0.000123712179
-4.1277873e-05
-0.0136219223
-0.0136231573
-0.0136261878
-0.0136310004
-0.0136373834
-0.0136452735
-0.0136547277
-0.0136656525
-0.0136780911
-0.013691992
-0.0137073244
-0.0137240541
-0.0137421346
-0.0137615097
-0.0137821154
-0.0138038788
-0.0138267181
-0.0138505427
-0.0138752565
-0.0139007542
-0.013926888
-0.0139534204
-0.0139804724
-0.0140077042
-0.0140350363
-0.014062281
-0.0140892616
-0.0141157888
-0.0141416608
-0.0141666649
-0.0141905772
-0.0142131629
-0.0142341765
-0.0142533634
-0.0142704613
-0.0142852013
-0.0142973099
-0.0143065135
-0.0143125442
-0.0143151406
-0.0143140444
-0.0143090025
-0.0142997684
-0.0142861073
-0.0142678038
-0.014244666
-0.0142165251
-0.0141832365
-0.014144682
-0.0141007717
-0.0140514462
-0.0139966779
-0.0139364719
-0.0138708658
-0.013799929
-0.013723762
-0.0136424938
-0.0135562806
-0.0134653027
-0.0133697621
-0.013269879
-0.0131658885
-0.0130580378
-0.012946582
-0.0128317816
-0.0127138988
-0.0125931949
-0.0124699274
-0.012344348
-0.0122167007
-0.0120872197
-0.0119561289
-0.0118236405
-0.0116899546
-0.0115552592
-0.0114197299
-0.0112835299
-0.0111468109
-0.0110097133
-0.0108723667
-0.0107348908
-0.0105973959
-0.0104599842
-0.0103227511
-0.0101857875
-0.0100491806
-0.00991301547
-0.00977737511
-0.00964234452
-0.00950801023
-0.00937445918
-0.0092417795
-0.00911006094
-0.00897939453
-0.00884987183
-0.00872158394
-0.00859462012
-0.00846906593
-0.00834500117
-0.00822249758
-0.00810161653
-0.0079824068
-0.00786490273
-0.00774912281
-0.00763506882
-0.00752272571
-0.00741206211
-0.00730303158
-0.00719557428
-0.00708961922
-0.00698508662
-0.00688189048
-0.00677994115
-0.0066791476
-0.00657941954
-0.00648066924
-0.00638281295
-0.00628577193
-0.00618947334
-0.00609385054
-0.00599884339
-0.00590439817
-0.00581046741
-0.00571700949
-0.00562398827
-0.00553137258
-0.00543913568
-0.00534725477
-0.00525571043
-0.00516448613
-0.00507356775
-0.0049829432
-0.00489260202
-0.00480253515
-0.00471273464
-0.00462319334
-0.00453390505
-0.00444486507
-0.00435607185
-0.00426753154
-0.00417924566
-0.00409109778
-0.00400319926
-0.00391552324
-0.0038280593
-0.00374080178
-0.00365374698
-0.00356689151
-0.00348023183
-0.00339376428
-0.0033074851
-0.0032213903
-0.00313547577
-0.00304973731
-0.00296417058
-0.0028787712
-0.00279353471
-0.00270845658
-0.00262353219
-0.00253875688
-0.00245412593
-0.00236963456
-0.00228527797
-0.00220105135
-0.00211694985
-0.00203296866
-0.00194910296
-0.00186534792
-0.00178169873
-0.00169815063
-0.00161469883
-0.00153133857
-0.00144806513
-0.0013648738
-0.00128175987
-0.00119871868
-0.00111574556
-0.00103283588
-0.000949985017
-0.000867188365
-0.000784441322
-0.000701739295
-0.000619077697
-0.000536451995
-0.00045385737
-0.000371289971
-0.000288742607
-0.000206220095
-0.000123689401
-4.12754022e-05
-0.0136070149
-0.0136082874
-0.0136114017
-0.0136163446
-0.0136229031
-0.0136310099
-0.0136406884
-0.0136519734
-0.0136648019
-0.0136791441
-0.0136949715
-0.0137122508
-0.0137309386
-0.0137509809
-0.0137723155
-0.0137948715
-0.0138185682
-0.0138433147
-0.0138690095
-0.013895543
-0.0139228266
-0.0139507357
-0.0139790794
-0.01400787
-0.0140367845
-0.0140656892
-0.014094411
-0.014122759
-0.0141505309
-0.0141775104
-0.0142034679
-0.0142281605
-0.0142513327
-0.0142727178
-0.0142920397
-0.0143090163
-0.0143233624
-0.0143347893
-0.0143430031
-0.0143477106
-0.0143486262
-0.0143454736
-0.0143379908
-0.0143259338
-0.014309075
-0.0142872045
-0.0142601348
-0.0142277058
-0.0141897864
-0.0141462775
-0.0140971134
-0.0140422639
-0.0139817346
-0.0139155679
-0.0138438414
-0.0137666669
-0.0136841884
-0.0135965794
-0.01350404
-0.0134067934
-0.0133050825
-0.0131991659
-0.0130893141
-0.0129758056
-0.0128589229
-0.0127389493
-0.0126161653
-0.0124908457
-0.0123632573
-0.0122336568
-0.0121022887
-0.0119693849
-0.0118351629
-0.0116998261
-0.0115635637
-0.0114265504
-0.0112889474
-0.0111509026
-0.0110125519
-0.0108740195
-0.0107354191
-0.0105968554
-0.0104584245
-0.0103202162
-0.0101823149
-0.0100448021
-0.0099077572
-0.00977126022
-0.00963539164
-0.00950023401
-0.0093658728
-0.00923239681
-0.00909989839
-0.00896847333
-0.00883822005
-0.00870923846
-0.00858162823
-0.00845548643
-0.00833090483
-0.008207967
-0.00808674507
-0.00796729685
-0.00784966329
-0.00773386647
-0.00761990849
-0.0075077712
-0.00739741689
-0.00728878988
-0.00718181877
-0.00707641927
-0.00697249734
-0.00686995242
-0.00676868057
-0.00666857734
-0.00656954025
-0.00647147092
-0.00637427657
-0.00627787122
-0.00618217642
-0.00608712153
-0.00599264383
-0.00589868825
-0.00580520702
-0.0057121591
-0.00561950958
-0.00552722906
-0.00543529289
-0.00534368061
-0.00525237528
-0.00516136291
-0.00507063195
-0.00498017281
-0.00488997737
-0.00480003846
-0.00471034949
-0.00462090386
-0.00453169459
-0.00444271516
-0.004353966
-0.00426549341
-0.00417723641
-0.00408918006
-0.0040013387
-0.00391371022
-0.00382629183
-0.00373907937
-0.00365206902
-0.00356525733
-0.00347864079
-0.00339221575
-0.00330597853
-0.00321992526
-0.00313405192
-0.00304835441
-0.00296282844
-0.00287746962
-0.00279227349
-0.00270723547
-0.00262235093
-0.0025376152
-0.00245302359
-0.00236857134
-0.00228425369
-0.00220006584
-0.002116003
-0.00203206036
-0.00194823313
-0.00186451649
-0.00178090563
-0.00169739577
-0.00161398214
-0.00153065994
-0.00144742444
-0.0013642709
-0.00128119459
-0.00119819083
-0.00111525492
-0.00103238222
-0.00094956807
-0.000866807873
-0.000784097008
-0.000701430876
-0.000618804878
-0.000536214471
-0.000453654827
-0.000371122084
-0.000288609119
-0.000206120881
-0.000123625739
-4.12502251e-05
-0.0135899377
-0.0135912522
-0.0135944658
-0.0135995664
-0.0136063377
-0.0136147133
-0.013624725
-0.0136363711
-0.0136496281
-0.01366446
-0.0136808381
-0.0136987308
-0.0137180969
-0.013738886
-0.0137610407
-0.0137844953
-0.0138091758
-0.0138349993
-0.0138618749
-0.0138897039
-0.0139183675
-0.0139477396
-0.0139777244
-0.0140080673
-0.014038722
-0.0140694969
-0.0141002038
-0.0141306461
-0.0141606139
-0.0141898838
-0.0142182176
-0.0142453626
-0.0142710518
-0.0142950056
-0.0143169328
-0.0143365318
-0.0143534921
-0.0143674994
-0.0143782421
-0.0143854131
-0.0143887073
-0.014387825
-0.0143824763
-0.0143723846
-0.0143572925
-0.0143369676
-0.014311205
-0.0142798288
-0.0142426936
-0.0141996888
-0.0141507411
-0.0140958169
-0.0140349231
-0.0139681073
-0.013895457
-0.013817098
-0.0137331919
-0.0136439334
-0.0135495465
-0.0134502804
-0.0133464058
-0.0132382097
-0.0131259912
-0.0130100567
-0.0128907158
-0.0127682767
-0.0126430431
-0.0125153102
-0.0123853625
-0.0122534715
-0.0121198937
-0.0119848698
-0.0118486237
-0.0117113625
-0.0115732766
-0.0114345398
-0.0112953105
-0.0111557322
-0.0110159347
-0.0108760355
-0.0107361409
-0.0105963472
-0.0104567429
-0.0103174097
-0.010178425
-0.010039863
-0.00990179715
-0.00976430008
-0.00962744702
-0.00949131733
-0.0093559951
-0.00922156968
-0.0090881364
-0.00895579675
-0.00882465758
-0.00869482977
-0.00856642616
-0.0084395586
-0.00831433455
-0.00819085305
-0.0080692006
-0.00794944711
-0.00783164244
-0.00771581366
-0.00760196343
-0.00749006963
-0.0073800863
-0.00727194572
-0.00716556144
-0.00706083206
-0.00695764529
-0.00685588212
-0.00675542077
-0.00665614023
-0.00655792322
-0.00646065862
-0.00636424314
-0.00626858251
-0.00617359212
-0.00607919715
-0.00598533236
-0.00589194172
-0.00579897765
-0.00570640028
-0.00561417663
-0.00552227972
-0.00543068771
-0.00533938314
-0.00524835217
-0.00515758388
-0.00506706971
-0.00497680291
-0.00488677814
-0.00479699115
-0.00470743848
-0.00461811673
-0.00452902049
-0.0044401355
-0.00435141252
-0.00426307494
-0.00417490207
-0.0040869213
-0.00399914855
-0.00391158363
-0.00382422478
-0.00373706945
-0.00365011458
-0.00356335702
-0.00347679352
-0.00339042063
-0.00330423475
-0.00321823214
-0.00313240886
-0.00304676088
-0.002961284
-0.00287597389
-0.00279082613
-0.00270583618
-0.00262099945
-0.00253631128
-0.00245176697
-0.00236736176
-0.00228309089
-0.00219894954
-0.00211493292
-0.0020310362
-0.00194725458
-0.00186358324
-0.00178001737
-0.00169655219
-0.00161318292
-0.00152990477
-0.00144671304
-0.00136360298
-0.00128056988
-0.00119760908
-0.00111471589
-0.00103188565
-0.000949113744
-0.00086639554
-0.000783726415
-0.000701101757
-0.000618516956
-0.000535967455
-0.000453448419
-0.000370955995
-0.00028848301
-0.000206034396
-0.000123577351
-4.12376427e-05
-0.0135706255
-0.013571986
-0.0135753055
-0.0135805715
-0.0135875636
-0.0135962157
-0.01360656
-0.0136186129
-0.0136323355
-0.0136476973
-0.0136646739
-0.0136832374
-0.0137033504
-0.0137249667
-0.013748033
-0.0137724881
-0.0137982621
-0.0138252756
-0.0138534406
-0.0138826595
-0.0139128265
-0.0139438249
-0.013975532
-0.0140077869
-0.0140404496
-0.0140733493
-0.0141063037
-0.0141391147
-0.014171569
-0.0142034375
-0.0142344742
-0.0142644161
-0.0142929832
-0.0143198795
-0.0143447948
-0.0143674077
-0.0143873894
-0.0144044046
-0.014418112
-0.0144281688
-0.0144342373
-0.0144359886
-0.0144331045
-0.0144252823
-0.0144122406
-0.0143937207
-0.0143694898
-0.0143393474
-0.0143031295
-0.0142607116
-0.0142120113
-0.0141569908
-0.0140956585
-0.0140280684
-0.0139543202
-0.0138745565
-0.0137889606
-0.0136977528
-0.0136011861
-0.0134995416
-0.0133931236
-0.0132822535
-0.013167265
-0.0130484983
-0.0129262952
-0.0128009941
-0.0126729259
-0.0125424102
-0.0124097523
-0.0122752408
-0.0121391458
-0.0120017179
-0.0118631876
-0.0117237652
-0.0115836416
-0.0114429886
-0.0113019603
-0.0111606942
-0.0110193131
-0.0108779259
-0.0107366298
-0.0105955116
-0.0104546499
-0.0103141165
-0.0101739781
-0.010034299
-0.00989514343
-0.00975657732
-0.00961866849
-0.00948149009
-0.00934512293
-0.0092096561
-0.00907518784
-0.008941826
-0.00880968745
-0.00867889663
-0.00854958301
-0.00842187748
-0.0082959079
-0.0081717938
-0.00804964082
-0.00792953518
-0.00781153886
-0.00769568582
-0.00758197967
-0.00747039326
-0.00736086982
-0.00725332591
-0.00714765557
-0.00704373532
-0.00694142961
-0.00684059619
-0.00674109118
-0.0066427734
-0.00654550788
-0.0064491687
-0.00635364069
-0.00625882059
-0.00616461751
-0.00607095272
-0.00597775918
-0.00588498075
-0.00579257113
-0.00570049277
-0.00560871574
-0.00551721665
-0.00542597755
-0.00533498497
-0.00524422909
-0.00515370294
-0.00506340178
-0.00497332257
-0.00488346341
-0.00479382315
-0.00470440102
-0.00461519658
-0.00452621129
-0.00443745622
-0.00434898792
-0.00426055627
-0.00417240027
-0.00408446792
-0.00399674846
-0.00390923821
-0.00382193374
-0.0037348322
-0.00364793065
-0.00356122603
-0.00347471515
-0.00338839465
-0.003302261
-0.00321631048
-0.0031305392
-0.0030449431
-0.002959518
-0.00287425955
-0.00278916336
-0.00270422493
-0.00261943966
-0.00253480292
-0.00245031001
-0.00236595617
-0.00228173662
-0.00219764654
-0.00211368112
-0.00202983552
-0.00194610492
-0.0018624845
-0.00177896942
-0.00169555488
-0.0016122361
-0.00152900827
-0.00144586666
-0.00136280651
-0.00127982308
-0.0011969117
-0.00111406767
-0.00103128631
-0.000948562996
-0.000865893098
-0.000783271995
-0.000700695079
-0.000618157748
-0.000535655454
-0.000453183375
-0.000370737665
-0.000288311217
-0.000205909031
-0.000123499306
-4.12087355e-05
-0.0135490053
-0.0135504147
-0.0135538468
-0.0135592896
-0.0135665193
-0.0135754708
-0.0135861807
-0.0135986569
-0.0136128745
-0.0136288043
-0.0136464245
-0.0136657107
-0.0136866297
-0.01370914
-0.0137331935
-0.0137587344
-0.0137856988
-0.0138140137
-0.0138435974
-0.0138743593
-0.0139062031
-0.0139390099
-0.0139726562
-0.0140069987
-0.0140418912
-0.0140771667
-0.0141126422
-0.0141481174
-0.0141833749
-0.0142181792
-0.0142522759
-0.0142853904
-0.0143172288
-0.0143474786
-0.0143758106
-0.0144018803
-0.0144253305
-0.0144457953
-0.0144629038
-0.0144762853
-0.0144855699
-0.0144903916
-0.0144903953
-0.0144852412
-0.0144746105
-0.0144582103
-0.0144357794
-0.014407092
-0.0143719613
-0.0143302448
-0.0142818479
-0.0142267271
-0.0141648914
-0.0140964024
-0.0140213739
-0.013939969
-0.0138523973
-0.0137589101
-0.013659796
-0.0135553748
-0.0134459911
-0.0133320083
-0.0132138017
-0.013091752
-0.0129662396
-0.0128376386
-0.012706312
-0.0125726074
-0.0124368542
-0.0122993602
-0.0121604105
-0.0120202663
-0.0118791647
-0.0117373191
-0.0115949199
-0.0114521359
-0.0113091154
-0.0111659885
-0.0110228684
-0.0108798537
-0.01073703
-0.0105944721
-0.0104522459
-0.0103104107
-0.0101690208
-0.0100281284
-0.00988778554
-0.00974804893
-0.00960897583
-0.00947063166
-0.00933309305
-0.00919644806
-0.00906079752
-0.00892625631
-0.00879295317
-0.00866102912
-0.00853063462
-0.00840192507
-0.00827505503
-0.00815017131
-0.00802740523
-0.00790686518
-0.00778862973
-0.00767274239
-0.00755920835
-0.00744799379
-0.0073390277
-0.00723220586
-0.00712739668
-0.00702444803
-0.00692319453
-0.00682346462
-0.006725087
-0.00662789594
-0.00653173553
-0.00643646272
-0.00634194915
-0.00624808204
-0.00615476431
-0.00606191399
-0.00596946319
-0.00587735686
-0.00578555131
-0.00569401264
-0.00560271533
-0.00551164081
-0.00542077613
-0.00533011286
-0.00523964606
-0.0051493734
-0.00505929441
-0.00496940997
-0.00487972178
-0.00479023223
-0.00470094468
-0.00461186358
-0.00452299287
-0.00443432909
-0.00434587134
-0.00425758818
-0.00416951923
-0.00408166317
-0.00399401504
-0.00390657269
-0.00381933389
-0.00373229633
-0.00364545757
-0.00355881488
-0.00347236533
-0.00338610571
-0.00330003262
-0.00321414243
-0.0031284313
-0.00304289526
-0.00295753017
-0.00287233171
-0.00278729549
-0.00270241696
-0.0026176915
-0.00253311444
-0.00244868105
-0.00236438654
-0.00228022612
-0.00219619495
-0.0021122882
-0.00202850102
-0.00194482858
-0.00186126603
-0.00177780853
-0.00169445128
-0.00161118947
-0.0015280183
-0.00144493304
-0.00136192894
-0.00127900127
-0.00119614536
-0.0011133565
-0.00103063005
-0.000947961368
-0.000865345826
-0.000782778804
-0.000700255692
-0.000617771886
-0.000535322844
-0.00045290375
-0.000370510782
-0.000288136825
-0.000205786879
-0.000123428457
-4.1187441e-05
-0.0135250004
-0.0135264613
-0.0135300119
-0.01353564
-0.0135431186
-0.0135523835
-0.0135634748
-0.0135764002
-0.0135911421
-0.0136076737
-0.0136259772
-0.0136460332
-0.0136678136
-0.0136912827
-0.0137163984
-0.0137431116
-0.0137713645
-0.013801091
-0.0138322161
-0.0138646558
-0.0138983172
-0.0139330895
-0.0139688569
-0.0140054849
-0.0140428299
-0.0140807233
-0.0141189833
-0.0141574087
-0.0141957793
-0.014233854
-0.0142713697
-0.0143080404
-0.0143435571
-0.0143775887
-0.0144097833
-0.0144397709
-0.0144671662
-0.0144915714
-0.0145125802
-0.0145297808
-0.0145427626
-0.0145511194
-0.0145544539
-0.014552384
-0.014544549
-0.014530616
-0.0145102859
-0.0144832985
-0.0144494389
-0.0144085428
-0.014360501
-0.0143052629
-0.0142428382
-0.014173298
-0.0140967727
-0.0140134501
-0.0139235712
-0.0138274254
-0.0137253437
-0.0136176926
-0.0135048661
-0.0133872776
-0.0132653525
-0.0131395201
-0.0130102064
-0.0128778279
-0.0127427851
-0.0126054587
-0.0124662049
-0.0123253537
-0.0121832063
-0.0120400353
-0.0118960839
-0.0117515675
-0.0116066744
-0.0114615681
-0.0113163892
-0.0111712575
-0.0110262746
-0.010881526
-0.0107370835
-0.0105930073
-0.0104493483
-0.0103061505
-0.010163453
-0.0100212921
-0.00987970632
-0.00973873501
-0.00959842607
-0.00945883495
-0.00932003001
-0.00918209577
-0.00904513456
-0.00890926846
-0.00877463975
-0.00864140962
-0.00850975487
-0.00837986251
-0.00825192223
-0.00812611721
-0.00800261365
-0.00788155024
-0.00776302854
-0.00764710542
-0.00753378851
-0.00742303528
-0.00731475561
-0.0072088176
-0.00710505579
-0.00700328064
-0.00690328836
-0.0068048703