/*--------------------------------*- C++ -*----------------------------------*\
| =========                 |                                                 |
| \\      /  F ield         | OpenFOAM: The Open Source CFD Toolbox           |
|  \\    /   O peration     | Version:  v2012                                 |
|   \\  /    A nd           | Website:  www.openfoam.com                      |
|    \\/     M anipulation  |                                                 |
\*---------------------------------------------------------------------------*/
FoamFile
{
    version     2.0;
    format      ascii;
    class       surfaceScalarField;
    location    "2.69";
    object      phi;
}
// * * * * * * * * * * * * * * * * * * * * * * * * * * * * * * * * * * * * * //

dimensions      [0 3 -1 0 0 0 0];
oriented        oriented;


internalField   nonuniform List<scalar> 
56481
(
6.66728518e-07
-1.25381735e-10
6.66867684e-07
-3.06257745e-10
6.67046198e-07
-3.87457201e-10
6.67223711e-07
-3.49657942e-10
6.67359072e-07
-1.94647446e-10
6.67439399e-07
5.61089148e-11
6.67453601e-07
3.63126054e-10
6.6738318e-07
6.95668787e-10
6.67228071e-07
1.01241479e-09
6.66999934e-07
1.28154845e-09
6.66716952e-07
1.47989311e-09
6.66400126e-07
1.59419439e-09
6.66070899e-07
1.62106402e-09
6.65749472e-07
1.56544368e-09
6.65453774e-07
1.43766387e-09
6.65198885e-07
1.25103449e-09
6.6499627e-07
1.02208398e-09
6.64852273e-07
7.73122646e-10
6.64766066e-07
5.34194701e-10
6.64728027e-07
3.41193014e-10
6.64719781e-07
2.29217689e-10
6.64716356e-07
2.23421087e-10
6.64689226e-07
3.31684714e-10
6.64609919e-07
5.42123145e-10
6.64456942e-07
8.26736605e-10
6.64221865e-07
1.14866861e-09
6.63905873e-07
1.46818843e-09
6.63518633e-07
1.74971993e-09
6.63075834e-07
1.96628196e-09
6.62596342e-07
2.1011354e-09
6.62099763e-07
2.14758781e-09
6.61604764e-07
2.10779892e-09
6.61128047e-07
1.99138079e-09
6.60683607e-07
1.81433247e-09
6.60281896e-07
1.59835259e-09
6.59928615e-07
1.37021128e-09
6.59623193e-07
1.1605383e-09
6.59357361e-07
1.00125139e-09
6.59114686e-07
9.21402114e-10
6.58872226e-07
9.41912131e-10
6.58604629e-07
1.07048306e-09
6.58289295e-07
1.29854527e-09
6.57910618e-07
1.6017257e-09
6.57462292e-07
1.94425242e-09
6.56947494e-07
2.28648359e-09
6.56377128e-07
2.59354721e-09
6.55766637e-07
2.84249679e-09
6.55132275e-07
3.02580839e-09
6.54487817e-07
3.15033678e-09
6.53842549e-07
3.23248153e-09
6.53200866e-07
3.29159723e-09
6.52563255e-07
3.34406082e-09
6.51928033e-07
3.39979399e-09
6.51293083e-07
3.46179311e-09
6.50657053e-07
3.52797993e-09
6.50019788e-07
3.59399721e-09
6.49382173e-07
3.65561943e-09
6.48745662e-07
3.71003775e-09
6.48111831e-07
3.75598755e-09
6.47482106e-07
3.79317208e-09
6.46857703e-07
3.82154184e-09
6.46239692e-07
3.84080969e-09
6.45629116e-07
3.85030427e-09
6.45027076e-07
3.84906659e-09
6.44434774e-07
3.83602291e-09
6.43853535e-07
3.81012429e-09
6.43284792e-07
3.77041444e-09
6.42730086e-07
3.71603057e-09
6.42191066e-07
3.64619569e-09
6.41669501e-07
3.56021095e-09
6.4116729e-07
3.45745642e-09
6.40686469e-07
3.33741215e-09
6.40229215e-07
3.19967541e-09
6.3979786e-07
3.04397043e-09
6.39394898e-07
2.87016415e-09
6.39023e-07
2.67827134e-09
6.38685043e-07
2.46845039e-09
6.38384151e-07
2.24099704e-09
6.38123812e-07
1.9963033e-09
6.37908234e-07
1.7347334e-09
6.37741398e-07
1.45622855e-09
6.37625727e-07
1.16077816e-09
6.37562828e-07
8.49257691e-10
6.37552532e-07
5.23546768e-10
6.37591313e-07
1.87030516e-10
6.37685391e-07
-1.61181281e-10
6.37853402e-07
-5.15466656e-10
6.38093473e-07
-8.74777016e-10
6.38405746e-07
-1.24018148e-09
6.38790276e-07
-1.60964037e-09
6.39247091e-07
-1.98107918e-09
6.39775843e-07
-2.35205337e-09
6.40375607e-07
-2.71964431e-09
6.41044805e-07
-3.08068287e-09
6.41781139e-07
-3.43183325e-09
6.42581553e-07
-3.76962218e-09
6.43442232e-07
-4.09051404e-09
6.44358642e-07
-4.39100348e-09
6.45325578e-07
-4.66770937e-09
6.46337227e-07
-4.91748842e-09
6.47387246e-07
-5.13754192e-09
6.48468843e-07
-5.32550234e-09
6.49574875e-07
-5.47951779e-09
6.50697963e-07
-5.59830112e-09
6.51830614e-07
-5.68116684e-09
6.52965357e-07
-5.72802959e-09
6.54094878e-07
-5.73940725e-09
6.55212149e-07
-5.71637596e-09
6.56310545e-07
-5.66053404e-09
6.57383946e-07
-5.57393484e-09
6.58426816e-07
-5.45902008e-09
6.59434262e-07
-5.3185301e-09
6.60402073e-07
-5.1554287e-09
6.61326736e-07
-4.9728187e-09
6.62205437e-07
-4.77385347e-09
6.6303604e-07
-4.56167086e-09
6.63817058e-07
-4.3393267e-09
6.64547612e-07
-4.10973195e-09
6.65227375e-07
-3.87561435e-09
6.65856517e-07
-3.63948179e-09
6.66435653e-07
-3.40359089e-09
6.66965779e-07
-3.16993893e-09
6.67448222e-07
-2.94025361e-09
6.67884574e-07
-2.71599507e-09
6.68276631e-07
-2.49835703e-09
6.68626338e-07
-2.28828167e-09
6.68935765e-07
-2.08646821e-09
6.69207124e-07
-1.89339236e-09
6.69442773e-07
-1.70934635e-09
6.69645153e-07
-1.53446898e-09
6.698167e-07
-1.3687646e-09
6.69959828e-07
-1.21213166e-09
6.70076953e-07
-1.06439608e-09
6.70170497e-07
-9.253329e-10
6.70242803e-07
-7.94665207e-10
6.70296121e-07
-6.72125603e-10
6.70332648e-07
-5.57485992e-10
6.70354537e-07
-4.50548973e-10
6.70363853e-07
-3.51170619e-10
6.70362484e-07
-2.59314109e-10
6.70351979e-07
-1.75037551e-10
6.70333201e-07
-9.8353176e-11
6.70306133e-07
-2.93025185e-11
6.70269224e-07
3.28287448e-11
6.70225901e-07
8.86010537e-11
6.70175682e-07
1.38166174e-10
6.70119172e-07
1.81877575e-10
6.70057102e-07
2.20323026e-10
6.69990211e-07
2.54078164e-10
6.69919224e-07
2.83643026e-10
6.69844821e-07
3.09443863e-10
6.69767631e-07
3.3185565e-10
6.69688224e-07
3.51211706e-10
6.69607116e-07
3.67806922e-10
6.69524773e-07
3.81902153e-10
6.69441614e-07
3.93727284e-10
6.69358005e-07
4.03485105e-10
6.69274266e-07
4.11355244e-10
6.69190674e-07
4.17497762e-10
6.69107465e-07
4.22057909e-10
6.69024838e-07
4.25169106e-10
6.68942967e-07
4.26955811e-10
6.68861998e-07
4.27534156e-10
6.68782061e-07
4.27013814e-10
6.68703267e-07
4.25497245e-10
6.68625717e-07
4.23080631e-10
6.685495e-07
4.19853383e-10
6.68474696e-07
4.15898432e-10
6.68401374e-07
4.11291343e-10
6.68329599e-07
4.06100872e-10
6.68259426e-07
4.00388962e-10
6.68190902e-07
3.94210307e-10
6.68124068e-07
3.87613369e-10
6.68058955e-07
3.80640924e-10
6.6799559e-07
3.73330166e-10
6.67933993e-07
3.65714068e-10
6.67874177e-07
3.57822096e-10
6.67816153e-07
3.49680276e-10
6.67759929e-07
3.41312284e-10
6.67705509e-07
3.32739317e-10
6.67652899e-07
3.23980437e-10
6.67602106e-07
3.15051645e-10
6.6755314e-07
3.05966072e-10
6.67506015e-07
2.96731287e-10
6.67460754e-07
2.87354201e-10
6.67417394e-07
2.77802702e-10
6.67375978e-07
2.68161679e-10
6.67336678e-07
2.57862695e-10
6.67299373e-07
2.49035476e-10
2.31434813e-10
6.66717832e-07
-1.76613811e-10
6.66862915e-07
-4.51340182e-10
6.67064081e-07
-5.88623596e-10
6.67279753e-07
-5.65330262e-10
6.67469258e-07
-3.8415256e-10
6.67595843e-07
-7.04756916e-11
6.67627806e-07
3.31163179e-10
6.67557503e-07
7.65971564e-10
6.67387364e-07
1.18255371e-09
6.67130739e-07
1.53817313e-09
6.66808381e-07
1.8022518e-09
6.66445096e-07
1.95747892e-09
6.6606672e-07
1.9994399e-09
6.65697858e-07
1.93430635e-09
6.65360634e-07
1.77488761e-09
6.65074089e-07
1.53757936e-09
6.64853319e-07
1.24285407e-09
6.64707573e-07
9.18868848e-10
6.64637461e-07
6.04306562e-10
6.64632533e-07
3.46121354e-10
6.64670885e-07
1.90864957e-10
6.64721798e-07
1.72508769e-10
6.64750025e-07
3.03457575e-10
6.64721095e-07
5.71052923e-10
6.6460775e-07
9.40081561e-10
6.64394967e-07
1.36145159e-09
6.64080912e-07
1.78224324e-09
6.63675657e-07
2.15497548e-09
6.63198214e-07
2.44372429e-09
6.62672862e-07
2.62648742e-09
6.62125726e-07
2.69472412e-09
6.61582178e-07
2.65134705e-09
6.61065091e-07
2.50846762e-09
6.60593584e-07
2.28583909e-09
6.6018174e-07
2.01019677e-09
6.59837021e-07
1.71493073e-09
6.5955856e-07
1.43899923e-09
6.59335961e-07
1.2238507e-09
6.59149446e-07
1.1079168e-09
6.58971718e-07
1.11963989e-09
6.58771462e-07
1.27073911e-09
6.5851836e-07
1.5516476e-09
6.58188804e-07
1.93128131e-09
6.57770535e-07
2.36252162e-09
6.57264594e-07
2.79242401e-09
6.56684015e-07
3.17412717e-09
6.56049724e-07
3.47678735e-09
6.55385006e-07
3.69052659e-09
6.54710206e-07
3.8251368e-09
6.54039181e-07
3.90350675e-09
6.53378239e-07
3.95253903e-09
6.52727392e-07
3.99490784e-09
6.52082982e-07
4.04420391e-09
6.51440485e-07
4.10428963e-09
6.50796531e-07
4.17193459e-09
6.50149729e-07
4.24079869e-09
6.49500479e-07
4.3048692e-09
6.48850233e-07
4.36028383e-09
6.48200733e-07
4.40548732e-09
6.47553534e-07
4.44037175e-09
6.46909865e-07
4.46521026e-09
6.46270739e-07
4.47993641e-09
6.45637122e-07
4.48392075e-09
6.45010079e-07
4.47610968e-09
6.44390829e-07
4.45527283e-09
6.43780763e-07
4.42019011e-09
6.43181426e-07
4.36975148e-09
6.42594505e-07
4.30295156e-09
6.42021829e-07
4.21887225e-09
6.41465372e-07
4.1166677e-09
6.40927267e-07
3.9955617e-09
6.40409807e-07
3.85487136e-09
6.39915456e-07
3.69402727e-09
6.39446841e-07
3.51258461e-09
6.39006765e-07
3.31024008e-09
6.38598201e-07
3.0868359e-09
6.38224298e-07
2.84235281e-09
6.37888391e-07
2.57690493e-09
6.37593977e-07
2.29071661e-09
6.3734461e-07
1.98410101e-09
6.371434e-07
1.65743792e-09
6.36992952e-07
1.31122673e-09
6.36896033e-07
9.46176437e-10
6.36856798e-07
5.6278209e-10
6.368829e-07
1.60927619e-10
6.36973292e-07
-2.51573216e-10
6.37132162e-07
-6.74336115e-10
6.37363546e-07
-1.10616129e-09
6.3766961e-07
-1.54624585e-09
6.38052173e-07
-1.99220255e-09
6.38512105e-07
-2.44101119e-09
6.39049559e-07
-2.88950724e-09
6.3966403e-07
-3.33411559e-09
6.40354237e-07
-3.7708901e-09
6.41118045e-07
-4.195641e-09
6.4195243e-07
-4.60400788e-09
6.42853474e-07
-4.99155722e-09
6.43816371e-07
-5.35390059e-09
6.44835475e-07
-5.68681338e-09
6.45904359e-07
-5.98637297e-09
6.47015905e-07
-6.24908812e-09
6.4816241e-07
-6.47200666e-09
6.49335716e-07
-6.65282407e-09
6.50527366e-07
-6.78995111e-09
6.51728766e-07
-6.8825665e-09
6.52931356e-07
-6.93062022e-09
6.54126787e-07
-6.9348382e-09
6.55307075e-07
-6.89666421e-09
6.5646475e-07
-6.81820853e-09
6.57592972e-07
-6.70215659e-09
6.58685629e-07
-6.55167702e-09
6.59737401e-07
-6.37030202e-09
6.60743798e-07
-6.16182624e-09
6.61701176e-07
-5.93019619e-09
6.62606719e-07
-5.6793968e-09
6.63458415e-07
-5.41336691e-09
6.64255005e-07
-5.13591641e-09
6.64995922e-07
-4.85064972e-09
6.65681228e-07
-4.5609204e-09
6.66311536e-07
-4.26978923e-09
6.66887934e-07
-3.97998921e-09
6.67411914e-07
-3.69391859e-09
6.67885294e-07
-3.4136334e-09
6.68310157e-07
-3.1408581e-09
6.68688794e-07
-2.87699471e-09
6.69023658e-07
-2.62314554e-09
6.69317314e-07
-2.38012409e-09
6.69572389e-07
-2.14846734e-09
6.69791531e-07
-1.92848803e-09
6.69977415e-07
-1.72035342e-09
6.70132716e-07
-1.52406527e-09
6.70260039e-07
-1.33945485e-09
6.70361861e-07
-1.16621782e-09
6.70440543e-07
-1.00401476e-09
6.70498397e-07
-8.52519597e-10
6.70537666e-07
-7.11394272e-10
6.70560438e-07
-5.8025822e-10
6.70568601e-07
-4.58712541e-10
6.70563799e-07
-3.46368002e-10
6.70547382e-07
-2.42897565e-10
6.70520466e-07
-1.48121103e-10
6.7048403e-07
-6.1917471e-11
6.70439237e-07
1.5490009e-11
6.70387823e-07
8.42429158e-11
6.7033056e-07
1.4586439e-10
6.70267976e-07
2.00750537e-10
6.70200489e-07
2.49363723e-10
6.70128652e-07
2.92160104e-10
6.70053067e-07
3.29663607e-10
6.6997432e-07
3.62390308e-10
6.69892966e-07
3.90797095e-10
6.69809528e-07
4.15293996e-10
6.69724485e-07
4.36254935e-10
6.69638274e-07
4.54017886e-10
6.6955129e-07
4.68885747e-10
6.69463889e-07
4.81128562e-10
6.69376386e-07
4.90987588e-10
6.69289063e-07
4.9867912e-10
6.69202163e-07
5.04397555e-10
6.69115901e-07
5.08319732e-10
6.69030463e-07
5.10607438e-10
6.68946008e-07
5.11410283e-10
6.68862676e-07
5.10866347e-10
6.68780585e-07
5.09104522e-10
6.68699839e-07
5.0624384e-10
6.68620524e-07
5.02394836e-10
6.68542719e-07
4.97659252e-10
6.68466486e-07
4.92130701e-10
6.68391884e-07
4.85893953e-10
6.68318959e-07
4.79025908e-10
6.68247752e-07
4.71595861e-10
6.68178297e-07
4.63665152e-10
6.68110622e-07
4.5528842e-10
6.68044749e-07
4.46514187e-10
6.67980694e-07
4.37384814e-10
6.6791847e-07
4.27937895e-10
6.67858085e-07
4.18206866e-10
6.67799545e-07
4.08220888e-10
6.67742851e-07
3.98005978e-10
6.67688006e-07
3.87584779e-10
6.67635009e-07
3.76976979e-10
6.67583862e-07
3.66198311e-10
6.67534567e-07
3.55261097e-10
6.67487127e-07
3.44171241e-10
6.67441545e-07
3.32936698e-10
6.67397828e-07
3.21519948e-10
6.67355937e-07
3.10052507e-10
6.67315921e-07
2.97878659e-10
6.67277125e-07
2.87831173e-10
2.67904715e-10
6.66722696e-07
-2.32610214e-10
6.66865651e-07
-5.94295079e-10
6.67060506e-07
-7.83478312e-10
6.67267098e-07
-7.71922002e-10
6.67446901e-07
-5.63955986e-10
6.67567753e-07
-1.9132757e-10
6.67599776e-07
2.99140646e-10
6.67532473e-07
8.33274018e-10
6.67367922e-07
1.34710523e-09
6.67118976e-07
1.78711918e-09
6.66805376e-07
2.11585156e-09
6.66450721e-07
2.31213406e-09
6.66079829e-07
2.37033149e-09
6.65716626e-07
2.297509e-09
6.65382814e-07
2.10870015e-09
6.6509713e-07
1.82326339e-09
6.6487447e-07
1.46551369e-09
6.6472414e-07
1.06919902e-09
6.64647332e-07
6.81115081e-10
6.64634887e-07
3.58565763e-10
6.64666452e-07
1.59299796e-10
6.64710768e-07
1.28193023e-10
6.64731612e-07
2.82613702e-10
6.64696496e-07
6.06168817e-10
6.64580549e-07
1.05602815e-09
6.64369927e-07
1.57207437e-09
6.64062763e-07
2.08940712e-09
6.63668064e-07
2.54967443e-09
6.63203206e-07
2.90858246e-09
6.62690762e-07
3.13893142e-09
6.62155442e-07
3.23004346e-09
6.61621614e-07
3.18517548e-09
6.61111479e-07
3.01860293e-09
6.60643709e-07
2.75360839e-09
6.60232173e-07
2.42173279e-09
6.59884491e-07
2.06261284e-09
6.596005e-07
1.72299083e-09
6.5937095e-07
1.45340011e-09
6.5917718e-07
1.30168652e-09
6.58992742e-07
1.30407881e-09
6.58787312e-07
1.4761691e-09
6.58531965e-07
1.80699462e-09
6.58204268e-07
2.25897763e-09
6.57792113e-07
2.77467668e-09
6.57295442e-07
3.2890949e-09
6.56725329e-07
3.7442409e-09
6.56100572e-07
4.10154432e-09
6.55442796e-07
4.34830191e-09
6.54771533e-07
4.49640012e-09
6.54100701e-07
4.57433843e-09
6.53437316e-07
4.61592454e-09
6.52782366e-07
4.64985753e-09
6.52133091e-07
4.69347863e-09
6.51485557e-07
4.75182407e-09
6.50836613e-07
4.82087857e-09
6.50184801e-07
4.89261042e-09
6.49530298e-07
4.95937188e-09
6.48874312e-07
5.01626992e-09
6.48218395e-07
5.06140449e-09
6.47563984e-07
5.0947834e-09
6.46912246e-07
5.11694812e-09
6.46264154e-07
5.12802839e-09
6.45620642e-07
5.12743275e-09
6.44982747e-07
5.11400442e-09
6.44351686e-07
5.08633392e-09
6.43728861e-07
5.04301446e-09
6.43115851e-07
4.98276147e-09
6.42514393e-07
4.90441028e-09
6.41926377e-07
4.8068883e-09
6.41353854e-07
4.6891901e-09
6.40799044e-07
4.55037192e-09
6.40264336e-07
4.38957939e-09
6.39752292e-07
4.20607092e-09
6.39265648e-07
3.99922937e-09
6.38807308e-07
3.76857953e-09
6.38380353e-07
3.51379133e-09
6.37988032e-07
3.23467353e-09
6.37633761e-07
2.93117583e-09
6.37321096e-07
2.60338172e-09
6.37053699e-07
2.25149789e-09
6.36835289e-07
1.87584845e-09
6.36669615e-07
1.47690048e-09
6.36560289e-07
1.05550176e-09
6.36509828e-07
6.13243601e-10
6.36517541e-07
1.53214664e-10
6.36592046e-07
-3.26077823e-10
6.36737632e-07
-8.19922578e-10
6.36958279e-07
-1.32680849e-09
6.37256158e-07
-1.84412502e-09
6.3763304e-07
-2.36908397e-09
6.38090367e-07
-2.89833855e-09
6.3862885e-07
-3.42799008e-09
6.39248389e-07
-3.95365442e-09
6.39948031e-07
-4.47053251e-09
6.40725892e-07
-4.97350137e-09
6.4157909e-07
-5.45720601e-09
6.4250372e-07
-5.91618745e-09
6.43494848e-07
-6.3450292e-09
6.44546541e-07
-6.73850641e-09
6.45651929e-07
-7.09176031e-09
6.46803304e-07
-7.40046304e-09
6.47992254e-07
-7.66095734e-09
6.49209827e-07
-7.87039709e-09
6.50446714e-07
-8.0268374e-09
6.51693451e-07
-8.12930382e-09
6.52940629e-07
-8.17779862e-09
6.54179095e-07
-8.173304e-09
6.55400137e-07
-8.11770632e-09
6.56595653e-07
-8.0137247e-09
6.57758287e-07
-7.8647897e-09
6.5888153e-07
-7.67492005e-09
6.59959794e-07
-7.44856681e-09
6.60988449e-07
-7.19048051e-09
6.61963821e-07
-6.90556898e-09
6.62883179e-07
-6.59875466e-09
6.63744681e-07
-6.27486842e-09
6.64547313e-07
-5.9385483e-09
6.65290811e-07
-5.59414829e-09
6.65975577e-07
-5.24568589e-09
6.66602584e-07
-4.89679685e-09
6.67173296e-07
-4.55070047e-09
6.67689575e-07
-4.21019757e-09
6.68153608e-07
-3.87766671e-09
6.68567829e-07
-3.55507952e-09
6.68934847e-07
-3.2440122e-09
6.69257379e-07
-2.94567746e-09
6.69538212e-07
-2.66095753e-09
6.69780182e-07
-2.39043763e-09
6.69986143e-07
-2.13444814e-09
6.70158887e-07
-1.89309749e-09
6.70301124e-07
-1.66630244e-09
6.70415498e-07
-1.45382911e-09
6.70504614e-07
-1.25533342e-09
6.70570961e-07
-1.07036208e-09
6.70616775e-07
-8.98334087e-10
6.70644298e-07
-7.38916816e-10
6.70655706e-07
-5.91666506e-10
6.70653053e-07
-4.56059158e-10
6.70638307e-07
-3.31622404e-10
6.70613372e-07
-2.1796239e-10
6.70579912e-07
-1.14660981e-10
6.70539593e-07
-2.15990111e-11
6.70491222e-07
6.38610131e-11
6.70435452e-07
1.40013673e-10
6.70373332e-07
2.07983685e-10
6.703058e-07
2.68282684e-10
6.70233607e-07
3.21557427e-10
6.70157378e-07
3.68388846e-10
6.70077724e-07
4.09317779e-10
6.69995232e-07
4.44881455e-10
6.6991045e-07
4.75579082e-10
6.69823882e-07
5.01862668e-10
6.69735991e-07
5.24145267e-10
6.69647204e-07
5.4280496e-10
6.69557904e-07
5.58185926e-10
6.69468433e-07
5.70599728e-10
6.69379092e-07
5.80328648e-10
6.69290143e-07
5.87628329e-10
6.69201811e-07
5.92729506e-10
6.69114289e-07
5.95841617e-10
6.69027742e-07
5.97154721e-10
6.68942309e-07
5.96842461e-10
6.68858113e-07
5.95062906e-10
6.68775256e-07
5.91961691e-10
6.68693828e-07
5.87671729e-10
6.68613907e-07
5.82315316e-10
6.68535562e-07
5.76004269e-10
6.68458852e-07
5.68841117e-10
6.68383827e-07
5.60918602e-10
6.68310532e-07
5.52321037e-10
6.68239003e-07
5.4312473e-10
6.68169271e-07
5.33397603e-10
6.68101359e-07
5.23200581e-10
6.68035285e-07
5.12588109e-10
6.67971062e-07
5.01607915e-10
6.67908697e-07
4.90302399e-10
6.67848195e-07
4.78709111e-10
6.67789555e-07
4.6686045e-10
6.67732776e-07
4.54784859e-10
6.67677855e-07
4.42506545e-10
6.67624786e-07
4.30046038e-10
6.67573565e-07
4.17419225e-10
6.67524187e-07
4.04638275e-10
6.6747665e-07
3.91708586e-10
6.67430948e-07
3.78639014e-10
6.67387081e-07
3.65386961e-10
6.67345033e-07
3.52100368e-10
6.67304899e-07
3.38012256e-10
6.67266517e-07
3.26213203e-10
3.02945383e-10
6.66722805e-07
-2.88715309e-10
6.66872892e-07
-7.44381583e-10
6.67082915e-07
-9.93502101e-10
6.6731043e-07
-9.99436854e-10
6.67510673e-07
-7.64198323e-10
6.67641013e-07
-3.21667824e-10
6.67682409e-07
2.577442e-10
6.67617793e-07
8.9789032e-10
6.67447637e-07
1.51726085e-09
6.67184901e-07
2.04985601e-09
6.66851006e-07
2.44974625e-09
6.66471913e-07
2.69122702e-09
6.66075132e-07
2.76711264e-09
6.65687451e-07
2.68518991e-09
6.65333377e-07
2.46277372e-09
6.65034142e-07
2.12249843e-09
6.64806528e-07
1.69312752e-09
6.64660766e-07
1.21496161e-09
6.64597573e-07
7.44307956e-10
6.64605457e-07
3.50681812e-10
6.64660019e-07
1.04737557e-10
6.64730026e-07
5.81859491e-11
6.64781087e-07
2.31553263e-10
6.64775065e-07
6.12190105e-10
6.64682114e-07
1.14897957e-09
6.64484817e-07
1.76937169e-09
6.64179771e-07
2.39445282e-09
6.63776453e-07
2.95299205e-09
6.63294236e-07
3.3907999e-09
6.62758667e-07
3.67450009e-09
6.62197925e-07
3.79078561e-09
6.6163996e-07
3.74314067e-09
6.61110385e-07
3.54817775e-09
6.60630814e-07
3.23317893e-09
6.60217247e-07
2.83530063e-09
6.59878259e-07
2.40160044e-09
6.59613208e-07
1.98804227e-09
6.59411118e-07
1.65548927e-09
6.59250937e-07
1.46186772e-09
6.5910347e-07
1.45154636e-09
6.58935157e-07
1.64448137e-09
6.58713302e-07
2.02884985e-09
6.58411852e-07
2.56042735e-09
6.58016279e-07
3.1702503e-09
6.57525922e-07
3.77945165e-09
6.5695301e-07
4.31715257e-09
6.56318691e-07
4.73586382e-09
6.55647364e-07
5.01962858e-09
6.54961076e-07
5.18268821e-09
6.54275549e-07
5.25986514e-09
6.53598724e-07
5.2927499e-09
6.52931726e-07
5.3168556e-09
6.52271393e-07
5.3538121e-09
6.51613146e-07
5.41007042e-09
6.50953197e-07
5.48082765e-09
6.50289588e-07
5.55621995e-09
6.49622168e-07
5.62679183e-09
6.48951954e-07
5.68648362e-09
6.48280384e-07
5.73297431e-09
6.47608808e-07
5.76635958e-09
6.46938312e-07
5.78744398e-09
6.46269792e-07
5.7965484e-09
6.45604121e-07
5.79310369e-09
6.44942296e-07
5.77582912e-09
6.44285513e-07
5.74311684e-09
6.4363518e-07
5.69334828e-09
6.42992903e-07
5.62503838e-09
6.4236048e-07
5.53683302e-09
6.41739894e-07
5.42747415e-09
6.41133317e-07
5.29576717e-09
6.40543117e-07
5.14057216e-09
6.39971862e-07
4.96083462e-09
6.39422319e-07
4.75561295e-09
6.38897456e-07
4.52409317e-09
6.38400425e-07
4.26561048e-09
6.3793456e-07
3.9796556e-09
6.37503363e-07
3.66587122e-09
6.37110478e-07
3.32406032e-09
6.36759672e-07
2.95418748e-09
6.36454789e-07
2.55638153e-09
6.36199672e-07
2.13096511e-09
6.35998074e-07
1.67849872e-09
6.35853773e-07
1.1998025e-09
6.35771151e-07
6.95866237e-10
6.35756955e-07
1.67410048e-10
6.35812448e-07
-3.8157106e-10
6.35942446e-07
-9.49920485e-10
6.36150414e-07
-1.53477616e-09
6.36439846e-07
-2.13355699e-09
6.36813552e-07
-2.74279003e-09
6.37273575e-07
-3.35836122e-09
6.37821202e-07
-3.97561749e-09
6.38456873e-07
-4.5893258e-09
6.39180053e-07
-5.19371241e-09
6.39989118e-07
-5.78256627e-09
6.40881269e-07
-6.34935715e-09
6.41852478e-07
-6.8873963e-09
6.4289747e-07
-7.39002069e-09
6.44009748e-07
-7.85078476e-09
6.45181671e-07
-8.2636828e-09
6.46404567e-07
-8.62336005e-09
6.47668904e-07
-8.92529397e-09
6.48964482e-07
-9.16597493e-09
6.5028067e-07
-9.34302515e-09
6.51606654e-07
-9.45528848e-09
6.52931697e-07
-9.50284106e-09
6.54245384e-07
-9.48699127e-09
6.55537859e-07
-9.41018119e-09
6.56800022e-07
-9.27588749e-09
6.58023693e-07
-9.08846056e-09
6.59201732e-07
-8.85295937e-09
6.60328114e-07
-8.57494925e-09
6.61397962e-07
-8.26032787e-09
6.62407537e-07
-7.91514389e-09
6.63354201e-07
-7.54541893e-09
6.64236348e-07
-7.15701597e-09
6.65053317e-07
-6.7555174e-09
6.65805288e-07
-6.34611896e-09
6.66493173e-07
-5.93357096e-09
6.67118507e-07
-5.52213061e-09
6.67683334e-07
-5.11552774e-09
6.68190105e-07
-4.7169686e-09
6.68641578e-07
-4.3291394e-09
6.69040731e-07
-3.954233e-09
6.69390692e-07
-3.59397287e-09
6.69694672e-07
-3.24965781e-09
6.69955917e-07
-2.9222017e-09
6.7017765e-07
-2.61217124e-09
6.70363039e-07
-2.31983689e-09
6.70515164e-07
-2.04522309e-09
6.70637013e-07
-1.78815088e-09
6.70731454e-07
-1.5482698e-09
6.70801211e-07
-1.32509044e-09
6.70848885e-07
-1.11803646e-09
6.70877043e-07
-9.26492383e-10
6.70887963e-07
-7.49836303e-10
6.70883761e-07
-5.87464872e-10
6.70866385e-07
-4.38682951e-10
6.70837143e-07
-3.0238101e-10
6.70797063e-07
-1.77881528e-10
6.70746919e-07
-6.4517332e-11
6.70688075e-07
3.72446043e-11
6.70623281e-07
1.28655635e-10
6.70552911e-07
2.10383192e-10
6.70477721e-07
2.83174068e-10
6.7039831e-07
3.47693771e-10
6.70315308e-07
4.04559591e-10
6.70229298e-07
4.54398873e-10
6.70140812e-07
4.97802946e-10
6.70050356e-07
5.35337892e-10
6.69958396e-07
5.67539177e-10
6.69865357e-07
5.94901301e-10
6.69771624e-07
6.1787817e-10
6.69677543e-07
6.36886078e-10
6.69583425e-07
6.52304444e-10
6.69489548e-07
6.64476626e-10
6.69396162e-07
6.73713887e-10
6.69303492e-07
6.80298776e-10
6.69211734e-07
6.84487306e-10
6.69121063e-07
6.8651301e-10
6.69031629e-07
6.86588755e-10
6.68943562e-07
6.84909575e-10
6.68856971e-07
6.81653079e-10
6.68771951e-07
6.76982592e-10
6.68688576e-07
6.71046553e-10
6.6860691e-07
6.63980815e-10
6.68527006e-07
6.5590883e-10
6.68448904e-07
6.46943095e-10
6.68372638e-07
6.37184727e-10
6.68298233e-07
6.26725162e-10
6.68225711e-07
6.15646781e-10
6.68155086e-07
6.0402262e-10
6.68086369e-07
5.91918023e-10
6.68019566e-07
5.79391291e-10
6.6795468e-07
5.66493427e-10
6.67891713e-07
5.53269699e-10
6.67830662e-07
5.39760166e-10
6.67771523e-07
5.25999311e-10
6.67714291e-07
5.12017385e-10
6.67658957e-07
4.97840093e-10
6.67605514e-07
4.8348927e-10
6.67553951e-07
4.68981883e-10
6.67504258e-07
4.5433132e-10
6.67456423e-07
4.39544088e-10
6.67410429e-07
4.24632984e-10
6.67366262e-07
4.09553497e-10
6.67323866e-07
3.94496348e-10
6.6728327e-07
3.7860853e-10
6.67243863e-07
3.65620239e-10
3.40027774e-10
6.66722917e-07
-3.45032788e-10
6.66872872e-07
-8.94336365e-10
6.67081707e-07
-1.2023364e-09
6.67308174e-07
-1.22590466e-09
6.67510438e-07
-9.6646166e-10
6.67652373e-07
-4.63602811e-10
6.67697478e-07
2.12638453e-10
6.67633968e-07
9.61400914e-10
6.67464121e-07
1.68710755e-09
6.67201428e-07
2.31254886e-09
6.66866957e-07
2.78421737e-09
6.66486281e-07
3.07190328e-09
6.66086738e-07
3.16665529e-09
6.65695122e-07
3.07680647e-09
6.65336099e-07
2.82179641e-09
6.65031189e-07
2.42740857e-09
6.64797578e-07
1.92673878e-09
6.64646077e-07
1.36646215e-09
6.64578358e-07
8.12026918e-10
6.64584862e-07
3.44177999e-10
6.64645961e-07
4.36386047e-11
6.64726743e-07
-2.25957627e-11
6.64781317e-07
1.76978544e-10
6.64777597e-07
6.15910228e-10
6.64687793e-07
1.2387839e-09
6.644953e-07
1.96186503e-09
6.64196485e-07
2.69326726e-09
6.63800006e-07
3.3494714e-09
6.63324303e-07
3.8665026e-09
6.62794183e-07
4.20462027e-09
6.62237394e-07
4.34757473e-09
6.61681752e-07
4.29878273e-09
6.61152947e-07
4.07698215e-09
6.60672843e-07
3.71328284e-09
6.60257905e-07
3.250239e-09
6.59917531e-07
2.74197487e-09
6.59652286e-07
2.25328657e-09
6.59452365e-07
1.85541096e-09
6.59297087e-07
1.61714519e-09
6.59156703e-07
1.59193071e-09
6.58996635e-07
1.80454886e-09
6.58783285e-07
2.24220055e-09
6.58490116e-07
2.85359555e-09
6.58102263e-07
3.5581034e-09
6.57618552e-07
4.2631627e-09
6.5705057e-07
4.88513516e-09
6.56418969e-07
5.36746488e-09
6.55748019e-07
5.69057846e-09
6.55060016e-07
5.87069084e-09
6.54371168e-07
5.94871332e-09
6.5368993e-07
5.97398803e-09
6.53017815e-07
5.98897074e-09
6.52351848e-07
6.01977822e-09
6.5168746e-07
6.0744589e-09
6.51020748e-07
6.14754012e-09
6.50349595e-07
6.22737209e-09
6.49673699e-07
6.30268778e-09
6.48993946e-07
6.36623689e-09
6.48311665e-07
6.41525527e-09
6.4762811e-07
6.44991442e-09
6.46944277e-07
6.47127761e-09
6.46260972e-07
6.47985323e-09
6.45578989e-07
6.47508617e-09
6.44899263e-07
6.45555584e-09
6.44222949e-07
6.41943035e-09
6.43551452e-07
6.36484591e-09
6.42886407e-07
6.29008279e-09
6.42229675e-07
6.19356533e-09
6.41583329e-07
6.07382014e-09
6.40949659e-07
5.92943701e-09
6.40331172e-07
5.75905901e-09
6.39730588e-07
5.5614186e-09
6.39150831e-07
5.33536968e-09
6.38595021e-07
5.07990372e-09
6.38066459e-07
4.79417196e-09
6.37568625e-07
4.47748988e-09
6.37105164e-07
4.12933193e-09
6.36679883e-07
3.74934165e-09
6.36296734e-07
3.33733636e-09
6.35959803e-07
2.89331292e-09
6.35673294e-07
2.41747421e-09
6.35441536e-07
1.91025679e-09
6.35268944e-07
1.3723939e-09
6.35159738e-07
8.05072099e-10
6.35117212e-07
2.09936278e-10
6.35147207e-07
-4.11565673e-10
6.35254337e-07
-1.05705057e-09
6.35443313e-07
-1.72375256e-09
6.35718033e-07
-2.4082765e-09
6.36081918e-07
-3.10667526e-09
6.36537825e-07
-3.81426808e-09
6.37087823e-07
-4.52561541e-09
6.37733032e-07
-5.23453542e-09
6.38473484e-07
-5.93416376e-09
6.39307973e-07
-6.61705525e-09
6.40233933e-07
-7.2753181e-09
6.41247347e-07
-7.90081022e-09
6.42342696e-07
-8.48536906e-09
6.43512968e-07
-9.02105677e-09
6.44749732e-07
-9.50044667e-09
6.46043271e-07
-9.91689956e-09
6.47382783e-07
-1.02648055e-08
6.48756629e-07
-1.05398209e-08
6.50152631e-07
-1.0739028e-08
6.51558394e-07
-1.08610508e-08
6.52961623e-07
-1.09060702e-08
6.54350447e-07
-1.08758156e-08
6.557137e-07
-1.07734344e-08
6.57041166e-07
-1.06033536e-08
6.58323772e-07
-1.03710659e-08
6.59553721e-07
-1.00829088e-08
6.60724574e-07
-9.74580237e-09
6.61831269e-07
-9.36702295e-09
6.62870098e-07
-8.95397237e-09
6.63838636e-07
-8.5139576e-09
6.6473565e-07
-8.0540291e-09
6.65560968e-07
-7.58083614e-09
6.66315355e-07
-7.10050553e-09
6.67000362e-07
-6.61857834e-09
6.67618194e-07
-6.13996276e-09
6.68171572e-07
-5.66890503e-09
6.68663608e-07
-5.20900451e-09
6.69097697e-07
-4.76322861e-09
6.69477417e-07
-4.33395296e-09
6.69806442e-07
-3.9229978e-09
6.7008847e-07
-3.53168662e-09
6.70327169e-07
-3.16090024e-09
6.70526127e-07
-2.81112899e-09
6.70688825e-07
-2.48253514e-09
6.70818608e-07
-2.17500583e-09
6.70918656e-07
-1.8881992e-09
6.70991979e-07
-1.62159241e-09
6.71041411e-07
-1.37452253e-09
6.71069597e-07
-1.14622278e-09
6.71078958e-07
-9.35853433e-10
6.71071667e-07
-7.42545402e-10
6.71049629e-07
-5.65426692e-10
6.71014592e-07
-4.03645741e-10
6.70968618e-07
-2.56407466e-10
6.70913748e-07
-1.23011372e-10
6.7085194e-07
-2.70939367e-12
6.70783279e-07
1.05905923e-10
6.70708738e-07
2.03196705e-10
6.70629029e-07
2.90091448e-10
6.70544964e-07
3.67239067e-10
6.70457268e-07
4.35389999e-10
6.70366571e-07
4.9525669e-10
6.70273447e-07
5.47522757e-10
6.70178415e-07
5.92835278e-10
6.70081948e-07
6.31804314e-10
6.69984484e-07
6.65003221e-10
6.69886422e-07
6.92963626e-10
6.69788126e-07
7.16174701e-10
6.69689924e-07
7.35087374e-10
6.69592112e-07
7.501166e-10
6.69494947e-07
7.61641664e-10
6.69398652e-07
7.70008801e-10
6.69303418e-07
7.75533118e-10
6.69209405e-07
7.784997e-10
6.69116751e-07
7.79167423e-10
6.69025569e-07
7.77770632e-10
6.68935956e-07
7.74522374e-10
6.68847994e-07
7.69615179e-10
6.68761752e-07
7.63225056e-10
6.68677287e-07
7.55511167e-10
6.68594649e-07
7.46618694e-10
6.68513879e-07
7.36679234e-10
6.68435009e-07
7.25812601e-10
6.68358068e-07
7.1412647e-10
6.68283074e-07
7.01718362e-10
6.68210045e-07
6.88676378e-10
6.68138989e-07
6.75078829e-10
6.68069911e-07
6.60996019e-10
6.68002811e-07
6.46490842e-10
6.67937686e-07
6.31618358e-10
6.67874528e-07
6.16427385e-10
6.67813328e-07
6.00960959e-10
6.67754071e-07
5.8525584e-10
6.67696744e-07
5.69343983e-10
6.67641332e-07
5.53252242e-10
6.67587818e-07
5.37003246e-10
6.67536186e-07
5.20614494e-10
6.67486417e-07
5.04100062e-10
6.67438494e-07
4.8746731e-10
6.67392395e-07
4.70731803e-10
6.67348102e-07
4.53846392e-10
6.67305575e-07
4.37023065e-10
6.67264885e-07
4.19298768e-10
6.67225803e-07
4.04702568e-10
3.75915976e-10
6.66724708e-07
-4.03041206e-10
6.66879805e-07
-1.04943291e-09
6.67096606e-07
-1.41913789e-09
6.67331921e-07
-1.46121896e-09
6.67540938e-07
-1.17547841e-09
6.67682186e-07
-6.04851329e-10
6.67730353e-07
1.64471031e-10
6.67669184e-07
1.02257028e-09
6.67498256e-07
1.85803536e-09
6.67230293e-07
2.58051256e-09
6.66886948e-07
3.12756231e-09
6.66495023e-07
3.46382795e-09
6.66083427e-07
3.57825125e-09
6.65680711e-07
3.47952243e-09
6.65313269e-07
3.18923888e-09
6.65004105e-07
2.73657265e-09
6.64771458e-07
2.15938535e-09
6.64626574e-07
1.51134617e-09
6.64570717e-07