/*--------------------------------*- C++ -*----------------------------------*\
| =========                 |                                                 |
| \\      /  F ield         | OpenFOAM: The Open Source CFD Toolbox           |
|  \\    /   O peration     | Version:  v2012                                 |
|   \\  /    A nd           | Website:  www.openfoam.com                      |
|    \\/     M anipulation  |                                                 |
\*---------------------------------------------------------------------------*/
FoamFile
{
    version     2.0;
    format      ascii;
    class       surfaceScalarField;
    location    "2.69";
    object      phiHbyA;
}
// * * * * * * * * * * * * * * * * * * * * * * * * * * * * * * * * * * * * * //

dimensions      [0 3 -1 0 0 0 0];
oriented        oriented;


internalField   nonuniform List<scalar> 
56481
(
6.66727557e-07
-1.22173872e-10
6.66865559e-07
-3.02909879e-10
6.67043009e-07
-3.84026817e-10
6.67219546e-07
-3.46254349e-10
6.67353737e-07
-1.91312818e-10
6.67433598e-07
5.95565449e-11
6.67446809e-07
3.66157536e-10
6.67375356e-07
6.98332116e-10
6.67219228e-07
1.01478003e-09
6.66990084e-07
1.28367109e-09
6.66706131e-07
1.48182016e-09
6.66388377e-07
1.59595522e-09
6.66058271e-07
1.62268118e-09
6.65736028e-07
1.56693647e-09
6.65439584e-07
1.43904745e-09
6.6518403e-07
1.25231847e-09
6.64980841e-07
1.02327104e-09
6.64836367e-07
7.74207321e-10
6.64749782e-07
5.35162878e-10
6.64711473e-07
3.42022482e-10
6.64703064e-07
2.2987667e-10
6.64699581e-07
2.23870173e-10
6.64672477e-07
3.31883235e-10
6.64593276e-07
5.42042983e-10
6.64440553e-07
8.26372235e-10
6.64205853e-07
1.14799871e-09
6.63890361e-07
1.46719657e-09
6.63503758e-07
1.74839601e-09
6.6306174e-07
1.96461735e-09
6.62583179e-07
2.09912121e-09
6.62087689e-07
2.14521376e-09
6.61593941e-07
2.10505256e-09
6.61118635e-07
1.98824754e-09
6.60675767e-07
1.81079654e-09
6.60275787e-07
1.59439919e-09
6.59924387e-07
1.36583013e-09
6.59620995e-07
1.15572811e-09
6.59357338e-07
9.96023833e-10
6.59116982e-07
9.15782984e-10
6.58876987e-07
9.35939767e-10
6.58612002e-07
1.06420411e-09
6.58299428e-07
1.29200764e-09
6.57923652e-07
1.59497205e-09
6.5747836e-07
1.93731733e-09
6.56966715e-07
2.27939403e-09
6.56399601e-07
2.58632538e-09
6.55792446e-07
2.83516366e-09
6.55161484e-07
3.01838682e-09
6.54520471e-07
3.14285334e-09
6.53878678e-07
3.22496705e-09
6.53240483e-07
3.28408641e-09
6.52606357e-07
3.33659105e-09
6.519746e-07
3.3924038e-09
6.51343082e-07
3.45452061e-09
6.50710432e-07
3.5208615e-09
6.50076483e-07
3.58706663e-09
6.49442103e-07
3.64890732e-09
6.48808735e-07
3.70357129e-09
6.4817794e-07
3.74979027e-09
6.47551135e-07
3.78726374e-09
6.46929525e-07
3.81593837e-09
6.46314172e-07
3.83552317e-09
6.45706113e-07
3.84534302e-09
6.45106442e-07
3.84443537e-09
6.44516359e-07
3.83172322e-09
6.43937184e-07
3.80615473e-09
6.43370352e-07
3.76677107e-09
6.42817401e-07
3.71270729e-09
6.42279984e-07
3.64318459e-09
6.41759871e-07
3.55750271e-09
6.41258965e-07
3.45504071e-09
6.40779303e-07
3.335278e-09
6.40323071e-07
3.19781152e-09
6.39892604e-07
3.04236548e-09
6.39490401e-07
2.86880709e-09
6.39119138e-07
2.67715151e-09
6.38781695e-07
2.46755773e-09
6.38481202e-07
2.24032239e-09
6.38221144e-07
1.99583944e-09
6.38005723e-07
1.73447889e-09
6.37838942e-07
1.45619808e-09
6.37723247e-07
1.16099642e-09
6.37660261e-07
8.49755714e-10
6.37649837e-07
5.24351432e-10
6.37688439e-07
1.881457e-10
6.37782466e-07
-1.59755279e-10
6.37950104e-07
-5.1390019e-10
6.38189744e-07
-8.73015424e-10
6.38501554e-07
-1.23820418e-09
6.38885548e-07
-1.60745399e-09
6.39341761e-07
-1.97868129e-09
6.39869856e-07
-2.34943972e-09
6.40468909e-07
-2.71681464e-09
6.41137345e-07
-3.0776397e-09
6.41872871e-07
-3.42858162e-09
6.42672433e-07
-3.76617019e-09
6.43532222e-07
-4.08687306e-09
6.44447706e-07
-4.3871881e-09
6.45413686e-07
-4.6637374e-09
6.46424355e-07
-4.91338068e-09
6.47473376e-07
-5.13332195e-09
6.48553961e-07
-5.32119598e-09
6.49658976e-07
-5.47515269e-09
6.50781046e-07
-5.5939061e-09
6.51912686e-07
-5.67677129e-09
6.5304643e-07
-5.72366275e-09
6.54174969e-07
-5.73509756e-09
6.55291282e-07
-5.71215043e-09
6.56388747e-07
-5.65641766e-09
6.57461248e-07
-5.56995014e-09
6.58503253e-07
-5.45518675e-09
6.59509872e-07
-5.31486477e-09
6.60476894e-07
-5.15194477e-09
6.61400809e-07
-4.96952637e-09
6.62278802e-07
-4.77075979e-09
6.63108737e-07
-4.55877991e-09
6.63889128e-07
-4.33663983e-09
6.64619092e-07
-4.10724809e-09
6.65298302e-07
-3.87333031e-09
6.65926927e-07
-3.63739259e-09
6.66505578e-07
-3.40169008e-09
6.6703525e-07
-3.16821882e-09
6.67517266e-07
-2.93870552e-09
6.67953217e-07
-2.71460959e-09
6.68344898e-07
-2.49712424e-09
6.68694249e-07
-2.28719139e-09
6.69003339e-07
-2.08550997e-09
6.69274377e-07
-1.89255498e-09
6.6950972e-07
-1.70861754e-09
6.69711807e-07
-1.53383566e-09
6.69883076e-07
-1.36821376e-09
6.70025939e-07
-1.21165115e-09
6.70142813e-07
-1.06397497e-09
6.70236115e-07
-9.24961906e-10
6.70308189e-07
-7.94336151e-10
6.70361284e-07
-6.71830738e-10
6.70397596e-07
-5.5721799e-10
6.70419277e-07
-4.50300608e-10
6.70428394e-07
-3.509343e-10
6.70426835e-07
-2.59082159e-10
6.70416153e-07
-1.7480339e-10
6.70397217e-07
-9.81137619e-11
6.70370012e-07
-2.90645362e-11
6.70332945e-07
3.30533116e-11
6.70289486e-07
8.88064289e-11
6.70239114e-07
1.38341642e-10
6.70182452e-07
1.82027886e-10
6.70120231e-07
2.20451757e-10
6.70053193e-07
2.5418836e-10
6.69982061e-07
2.83737818e-10
6.69907519e-07
3.09525975e-10
6.69830193e-07
3.31927127e-10
6.69750653e-07
3.51273984e-10
6.69669417e-07
3.67861155e-10
6.69586951e-07
3.81949358e-10
6.69503671e-07
3.93768368e-10
6.69419944e-07
4.03520864e-10
6.69336092e-07
4.11386356e-10
6.69252391e-07
4.17524791e-10
6.69169075e-07
4.2208131e-10
6.69086346e-07
4.25189235e-10
6.69004376e-07
4.26972942e-10
6.68923312e-07
4.275485e-10
6.68843283e-07
4.2702553e-10
6.68764401e-07
4.2550646e-10
6.68686767e-07
4.23087449e-10
6.68610469e-07
4.19857893e-10
6.68535587e-07
4.15900713e-10
6.68462191e-07
4.11291469e-10
6.68390346e-07
4.06098911e-10
6.68320106e-07
4.00384977e-10
6.68251518e-07
3.94204355e-10
6.68184623e-07
3.876055e-10
6.68119454e-07
3.80631184e-10
6.68056036e-07
3.73318591e-10
6.67994389e-07
3.65700691e-10
6.67934527e-07
3.57806945e-10
6.6787646e-07
3.49663377e-10
6.67820195e-07
3.41293669e-10
6.67765738e-07
3.32719022e-10
6.67713095e-07
3.23958514e-10
6.67662272e-07
3.15028168e-10
6.67613278e-07
3.05941151e-10
6.6756613e-07
2.96705087e-10
6.67520847e-07
2.87326986e-10
6.6747747e-07
2.77774886e-10
6.67436032e-07
2.68134086e-10
6.67396731e-07
2.57836603e-10
6.67359339e-07
2.49014724e-10
2.31422673e-10
6.66717056e-07
-1.73037413e-10
6.668609e-07
-4.47831916e-10
6.67060856e-07
-5.85161386e-10
6.67275496e-07
-5.6189275e-10
6.67464073e-07
-3.80740283e-10
6.6758949e-07
-6.71234034e-11
6.67620525e-07
3.34583798e-10
6.67549284e-07
7.6937573e-10
6.67378199e-07
1.18588971e-09
6.6712063e-07
1.54140771e-09
6.6679734e-07
1.80536419e-09
6.66433157e-07
1.96045519e-09
6.66053928e-07
2.00226659e-09
6.65684268e-07
1.93696915e-09
6.65346312e-07
1.77737109e-09
6.65059106e-07
1.53986684e-09
6.64837754e-07
1.24492781e-09
6.64691512e-07
9.20710705e-10
6.64620994e-07
6.05899145e-10
6.64615752e-07
3.4744909e-10
6.6465389e-07
1.91915088e-10
6.6470469e-07
1.73260949e-10
6.64732907e-07
3.03884308e-10
6.64704075e-07
5.71145254e-10
6.64590956e-07
9.39832085e-10
6.64378528e-07
1.36084238e-09
6.64064961e-07
1.78125227e-09
6.6366033e-07
2.15358035e-09
6.63183656e-07
2.44190293e-09
6.62659223e-07
2.62421894e-09
6.62113159e-07
2.69198975e-09
6.61570841e-07
2.64813095e-09
6.61055145e-07
2.50475786e-09
6.60585192e-07
2.28162865e-09
6.60175064e-07
2.00548423e-09
6.59832225e-07
1.70972021e-09
6.59555809e-07
1.43329893e-09
6.59335419e-07
1.21767091e-09
6.59151274e-07
1.10126879e-09
6.58976072e-07
1.1125358e-09
6.58778492e-07
1.26319334e-09
6.58528206e-07
1.54368008e-09
6.58201598e-07
1.92292013e-09
6.57786398e-07
2.35380272e-09
6.5728364e-07
2.78338895e-09
6.56706341e-07
3.16482083e-09
6.56075416e-07
3.46725635e-09
6.55414132e-07
3.68081864e-09
6.54742819e-07
3.81530048e-09
6.54075315e-07
3.89359146e-09
6.53417911e-07
3.94259477e-09
6.52770599e-07
3.9849849e-09
6.52129706e-07
4.03435237e-09
6.51490689e-07
4.09455876e-09
6.5085016e-07
4.16237225e-09
6.50206715e-07
4.23145057e-09
6.49560737e-07
4.29577822e-09
6.48913664e-07
4.35148947e-09
6.48267227e-07
4.39702516e-09
6.47622969e-07
4.43227305e-09
6.4698211e-07
4.45750172e-09
6.46345652e-07
4.47264e-09
6.45714559e-07
4.47705364e-09
6.45089887e-07
4.46968425e-09
6.44472854e-07
4.44929672e-09
6.43864848e-07
4.41466646e-09
6.43267413e-07
4.36467923e-09
6.42682237e-07
4.29832598e-09
6.42111151e-07
4.21468538e-09
6.41556132e-07
4.11290884e-09
6.41019317e-07
3.99221788e-09
6.40503003e-07
3.85192781e-09
6.40009658e-07
3.69146795e-09
6.39541916e-07
3.51039261e-09
6.39102585e-07
3.3083981e-09
6.38694641e-07
3.0853267e-09
6.38321242e-07
2.84115972e-09
6.37985723e-07
2.57601257e-09
6.37691589e-07
2.290112e-09
6.37442397e-07
1.98377516e-09
6.37241275e-07
1.6573865e-09
6.37090843e-07
1.31144443e-09
6.36993873e-07
9.4665084e-10
6.36954515e-07
5.63495309e-10
6.36980439e-07
1.6186991e-10
6.37070553e-07
-2.50422291e-10
6.37229122e-07
-6.72960678e-10
6.37460103e-07
-1.10459584e-09
6.37765694e-07
-1.54449554e-09
6.38147724e-07
-1.99026963e-09
6.3860706e-07
-2.4389025e-09
6.39143856e-07
-2.8872292e-09
6.39757614e-07
-3.33167452e-09
6.40447053e-07
-3.76829328e-09
6.41210041e-07
-4.19289691e-09
6.4204356e-07
-4.60112647e-09
6.42943693e-07
-4.98855016e-09
6.4390564e-07
-5.35078136e-09
6.44923761e-07
-5.68359731e-09
6.45991634e-07
-5.98307716e-09
6.47102147e-07
-6.24573123e-09
6.48247604e-07
-6.4686086e-09
6.49419854e-07
-6.64940567e-09
6.50610448e-07
-6.78653362e-09
6.51810797e-07
-6.87917109e-09
6.5301235e-07
-6.92726751e-09
6.54206764e-07
-6.93154775e-09
6.55386061e-07
-6.89345405e-09
6.56542774e-07
-6.81509482e-09
6.5767007e-07
-6.69915329e-09
6.58761841e-07
-6.5487957e-09
6.59812767e-07
-6.36755177e-09
6.60818363e-07
-6.15921365e-09
6.61774983e-07
-5.92772541e-09
6.62679813e-07
-5.6770697e-09
6.6353084e-07
-5.41118328e-09
6.64326803e-07
-5.13387419e-09
6.65067135e-07
-4.8487453e-09
6.65751895e-07
-4.55914887e-09
6.66381694e-07
-4.26814465e-09
6.66957617e-07
-3.97846487e-09
6.67481154e-07
-3.6925073e-09
6.6795412e-07
-3.4123277e-09
6.68378596e-07
-3.13965045e-09
6.6875687e-07
-2.87587756e-09
6.69091393e-07
-2.62211139e-09
6.69384726e-07
-2.37916551e-09
6.69639496e-07
-2.14757711e-09
6.69858349e-07
-1.92765939e-09
6.70043958e-07
-1.71957995e-09
6.70198997e-07
-1.52334079e-09
6.7032607e-07
-1.33877351e-09
6.70427652e-07
-1.16557441e-09
6.70506104e-07
-1.00340431e-09
6.70563736e-07
-8.51937579e-10
6.70602792e-07
-7.10836368e-10
6.70625358e-07
-5.79720297e-10
6.70633324e-07
-4.58191761e-10
6.70628332e-07
-3.45862816e-10
6.70611735e-07
-2.42407409e-10
6.70584646e-07
-1.47647602e-10
6.70548042e-07
-6.14642233e-11
6.70503098e-07
1.59383272e-11
6.70451517e-07
8.46733969e-11
6.70394105e-07
1.46288703e-10
6.70331373e-07
2.01166458e-10
6.70263739e-07
2.49768851e-10
6.70191756e-07
2.92554314e-10
6.70116028e-07
3.30047086e-10
6.7003714e-07
3.62763279e-10
6.69955649e-07
3.91159968e-10
6.69872077e-07
4.156471e-10
6.69786903e-07
4.36598375e-10
6.69700566e-07
4.54351622e-10
6.69613459e-07
4.69209685e-10
6.69525938e-07
4.81442598e-10
6.69438319e-07
4.91291643e-10
6.69350883e-07
4.98973152e-10
6.69263874e-07
5.04681572e-10
6.69177506e-07
5.08593787e-10
6.69091966e-07
5.10871616e-10
6.69007413e-07
5.11664691e-10
6.68923985e-07
5.111111e-10
6.68841803e-07
5.09339734e-10
6.68760969e-07
5.06469618e-10
6.6868157e-07
5.02611273e-10
6.68603683e-07
4.97866429e-10
6.68527374e-07
4.92328686e-10
6.68452697e-07
4.86082804e-10
6.68379702e-07
4.79205679e-10
6.68308428e-07
4.71766598e-10
6.6823891e-07
4.63826902e-10
6.68171175e-07
4.55441234e-10
6.68105245e-07
4.46658116e-10
6.68041137e-07
4.37519917e-10
6.67978863e-07
4.28064236e-10
6.67918432e-07
4.18324518e-10
6.67859848e-07
4.0832993e-10
6.67803114e-07
3.98106497e-10
6.67748232e-07
3.87676874e-10
6.67695202e-07
3.77060762e-10
6.67644026e-07
3.6627391e-10
6.67594704e-07
3.55328664e-10
6.6754724e-07
3.44230963e-10
6.67501636e-07
3.32988805e-10
6.67457903e-07
3.21564721e-10
6.67415992e-07
3.10090204e-10
6.67375981e-07
2.97909356e-10
6.67337102e-07
2.87853594e-10
2.67915702e-10
6.6672183e-07
-2.2782232e-10
6.66863576e-07
-5.89497375e-10
6.67057249e-07
-7.78699118e-10
6.67262807e-07
-7.67198002e-10
6.67441636e-07
-5.5932005e-10
6.67561491e-07
-1.86824833e-10
6.67592473e-07
3.03417326e-10
6.67524164e-07
8.37357434e-10
6.67358622e-07
1.35098369e-09
6.67108704e-07
1.79079161e-09
6.66794154e-07
2.11931304e-09
6.66438583e-07
2.31538034e-09
6.6606682e-07
2.37335943e-09
6.657028e-07
2.30031426e-09
6.65368232e-07
2.11127595e-09
6.65081863e-07
1.82559962e-09
6.64858598e-07
1.4675959e-09
6.64707749e-07
1.07100705e-09
6.64630513e-07
6.82620767e-10
6.64617739e-07
3.59729973e-10
6.64649062e-07
1.60073627e-10
6.64693229e-07
1.28558294e-10
6.6471405e-07
2.82614342e-10
6.64679023e-07
6.05749883e-10
6.64563278e-07
1.05513515e-09
6.64352982e-07
1.57067189e-09
6.64046275e-07
2.08746793e-09
6.63652172e-07
2.54717514e-09
6.63188055e-07
2.90550221e-09
6.62676504e-07
3.1352512e-09
6.62142237e-07
3.225746e-09
6.61609623e-07
3.18024556e-09
6.61100869e-07
3.01302798e-09
6.60634651e-07
2.74737906e-09
6.60224836e-07
2.41484357e-09
6.59879046e-07
2.05506288e-09
6.59597113e-07
1.71478505e-09
6.59369787e-07
1.44455021e-09
6.59178403e-07
1.29221078e-09
6.5899651e-07
1.29400062e-09
6.58793782e-07
1.46551638e-09
6.58541289e-07
1.79580054e-09
6.58216587e-07
2.24728094e-09
6.57807557e-07
2.7625213e-09
6.57314128e-07
3.27652957e-09
6.56747357e-07
3.73131887e-09
6.56126029e-07
4.08832312e-09
6.55471752e-07
4.33484284e-09
6.54804041e-07
4.48276755e-09
6.54136797e-07
4.56059904e-09
6.53477016e-07
4.6021464e-09
6.52825668e-07
4.63610918e-09
6.52179975e-07
4.67982813e-09
6.51535983e-07
4.73833811e-09
6.50890526e-07
4.80762157e-09
6.50242127e-07
4.87964361e-09
6.49590949e-07
4.94675255e-09
6.48938183e-07
5.00405068e-09
6.48285371e-07
5.04963263e-09
6.47633935e-07
5.08350043e-09
6.46985036e-07
5.10618943e-09
6.46339636e-07
5.11782305e-09
6.45698663e-07
5.1178035e-09
6.4506315e-07
5.10496775e-09
6.4443431e-07
5.07790037e-09
6.43813544e-07
5.03518894e-09
6.4320243e-07
4.97554376e-09
6.42602706e-07
4.89779547e-09
6.42016266e-07
4.80086739e-09
6.41445165e-07
4.68375057e-09
6.40891624e-07
4.54549838e-09
6.40358041e-07
4.38525418e-09
6.39846981e-07
4.20227475e-09
6.39361186e-07
3.99594195e-09
6.38903568e-07
3.76578012e-09
6.38477212e-07
3.51145942e-09
6.38085374e-07
3.23278944e-09
6.37731475e-07
2.92972143e-09
6.37419078e-07
2.60234112e-09
6.37151851e-07
2.25085804e-09
6.36933521e-07
1.87559919e-09
6.36767847e-07
1.47703372e-09
6.36658447e-07
1.0560109e-09
6.3660785e-07
6.14121467e-10
6.36615356e-07
1.54446842e-10
6.36689604e-07
-3.24498969e-10
6.36834845e-07
-8.18018763e-10
6.37055081e-07
-1.32458096e-09
6.37352484e-07
-1.84158107e-09
6.37728824e-07
-2.36623161e-09
6.38185546e-07
-2.89518351e-09
6.38723364e-07
-3.42453789e-09
6.39342179e-07
-3.94991216e-09
6.40041042e-07
-4.46650935e-09
6.40818069e-07
-4.96920898e-09
6.41670385e-07
-5.452659e-09
6.42594087e-07
-5.91140379e-09
6.43584245e-07
-6.34003033e-09
6.44634932e-07
-6.73331732e-09
6.45739284e-07
-7.08640936e-09
6.46889599e-07
-7.39498163e-09
6.48077474e-07
-7.65537941e-09
6.49293963e-07
-7.86475844e-09
6.50529765e-07
-8.02117495e-09
6.51775424e-07
-8.12365471e-09
6.5302154e-07
-8.17219936e-09
6.54258964e-07
-8.16778959e-09
6.55478993e-07
-8.11230946e-09
6.5667353e-07
-8.00847508e-09
6.57835222e-07
-7.8597135e-09
6.58957566e-07
-7.67003949e-09
6.60034977e-07
-7.44389998e-09
6.61062824e-07
-7.18604126e-09
6.62037437e-07
-6.901367e-09
6.62956082e-07
-6.59479568e-09
6.63816917e-07
-6.27115452e-09
6.64618927e-07
-5.93507827e-09
6.65361847e-07
-5.59091804e-09
6.66046074e-07
-5.24268891e-09
6.66672582e-07
-4.89402464e-09
6.67242828e-07
-4.54814296e-09
6.67758674e-07
-4.2078435e-09
6.68222304e-07
-3.87550396e-09
6.68636148e-07
-3.55309544e-09
6.69002812e-07
-3.24219386e-09
6.69325012e-07
-2.94401192e-09
6.69605533e-07
-2.65943208e-09
6.69847208e-07
-2.38903994e-09
6.70052887e-07
-2.13316635e-09
6.70225365e-07
-1.89192034e-09
6.70367347e-07
-1.66521944e-09
6.70481479e-07
-1.4528307e-09
6.70570361e-07
-1.25441085e-09
6.70636484e-07
-1.06950739e-09
6.70682083e-07
-8.97539991e-10
6.70709397e-07
-7.38176825e-10
6.70720604e-07
-5.90975012e-10
6.70717755e-07
-4.55409674e-10
6.70702821e-07
-3.31007971e-10
6.70677703e-07
-2.17374537e-10
6.70644065e-07
-1.14089718e-10
6.70603599e-07
-2.10497965e-11
6.70555059e-07
6.43756213e-11
6.70499138e-07
1.40503227e-10
6.70436866e-07
2.08446896e-10
6.70369183e-07
2.68722081e-10
6.70296842e-07
3.21974526e-10
6.70220467e-07
3.68784931e-10
6.7014067e-07
4.09694362e-10
6.70058039e-07
4.45239921e-10
6.6997312e-07
4.75920767e-10
6.69886418e-07
5.02188874e-10
6.69798397e-07
5.2445717e-10
6.69709483e-07
5.431036e-10
6.69620059e-07
5.58472222e-10
6.69530469e-07
5.70874474e-10
6.69441011e-07
5.80592502e-10
6.69351949e-07
5.87881808e-10
6.69263508e-07
5.92972996e-10
6.69175881e-07
5.96075391e-10
6.69089232e-07
5.97378964e-10
6.69003701e-07
5.97057296e-10
6.6891941e-07
5.95268415e-10
6.68836461e-07
5.92157938e-10
6.68754945e-07
5.8785877e-10
6.68674941e-07
5.82493211e-10
6.68596515e-07
5.76173084e-10
6.68519727e-07
5.69000925e-10
6.68444629e-07
5.61069483e-10
6.68371263e-07
5.52463075e-10
6.68299668e-07
5.43258008e-10
6.68229872e-07
5.33522205e-10
6.681619e-07
5.23316582e-10
6.68095769e-07
5.12695578e-10
6.68031493e-07
5.01706917e-10
6.67969079e-07
4.90392991e-10
6.6790853e-07
4.78791346e-10
6.67849847e-07
4.66934379e-10
6.67793029e-07
4.54850538e-10
6.6773807e-07
4.42564037e-10
6.67684968e-07
4.30095421e-10
6.67633717e-07
4.17460598e-10
6.67584313e-07
4.04671767e-10
6.67536753e-07
3.91734367e-10
6.6749103e-07
3.78657311e-10
6.67447147e-07
3.65398071e-10
6.67405079e-07
3.52104793e-10
6.67364948e-07
3.38010719e-10
6.67326479e-07
3.26208127e-10
3.02939573e-10
6.66721952e-07
-2.82821684e-10
6.66870791e-07
-7.3850072e-10
6.67079585e-07
-9.87650242e-10
6.67306023e-07
-9.93632669e-10
6.67505231e-07
-7.58462564e-10
6.67634451e-07
-3.16014521e-10
6.67674851e-07
2.63383226e-10
6.67609212e-07
9.03401111e-10
6.67438065e-07
1.52262498e-09
6.6717435e-07
2.05504197e-09
6.66839499e-07
2.4547307e-09
6.66459485e-07
2.69598929e-09
6.66061827e-07
2.77163029e-09
6.6567332e-07
2.6894396e-09
6.65318477e-07
2.46673133e-09
6.65018539e-07
2.12613905e-09
6.64790293e-07
1.69642584e-09
6.64643973e-07
1.21789354e-09
6.64580302e-07
7.46854467e-10
6.64587791e-07
3.52833635e-10
6.64642087e-07
1.06485751e-10
6.64712004e-07
5.94146732e-11
6.64762969e-07
2.32173246e-10
6.64756964e-07
6.1217842e-10
6.64664167e-07
1.14833932e-09
6.6446716e-07
1.76808028e-09
6.64162541e-07
2.39248149e-09
6.63759791e-07
2.95031102e-09
6.6327829e-07
3.38737975e-09
6.62743592e-07
3.67031295e-09
6.62183881e-07
3.78580599e-09
6.61627114e-07
3.7373461e-09
6.61098908e-07
3.54154954e-09
6.60620881e-07
3.22570287e-09
6.60209034e-07
2.82696776e-09
6.59871944e-07
2.39240753e-09
6.59608967e-07
1.97799218e-09
6.59409126e-07
1.64459203e-09
6.59251361e-07
1.45014367e-09
6.59106476e-07
1.43902925e-09
6.5894091e-07
1.63121685e-09
6.5872196e-07
2.01489007e-09
6.58423563e-07
2.54582735e-09
6.58031179e-07
3.15506796e-09
6.57544134e-07
3.76374869e-09
6.56974642e-07
4.30099557e-09
6.56343832e-07
4.71932467e-09
6.5567609e-07
5.00278417e-09
6.54993442e-07
5.16561967e-09
6.54311593e-07
5.24265703e-09
6.53638463e-07
5.27548921e-09
6.52975157e-07
5.29963066e-09
6.52318494e-07
5.33671121e-09
6.51663876e-07
5.39318039e-09
6.51007494e-07
5.46423245e-09
6.50347374e-07
5.53999936e-09
6.49683348e-07
5.61102035e-09
6.49016417e-07
5.67122952e-09
6.48348007e-07
5.71829883e-09
6.47679454e-07
5.75231633e-09
6.47011835e-07
5.77407851e-09
6.46346037e-07
5.78389793e-09
6.45682928e-07
5.78119703e-09
6.45023499e-07
5.76468679e-09
6.44368943e-07
5.73275138e-09
6.43720667e-07
5.68376468e-09
6.4308028e-07
5.61623457e-09
6.4244958e-07
5.5288006e-09
6.41830554e-07
5.42019911e-09
6.41225377e-07
5.28923073e-09
6.40636424e-07
5.13475158e-09
6.40066267e-07
4.95570415e-09
6.39517683e-07
4.75114465e-09
6.38993641e-07
4.52025775e-09
6.38497305e-07
4.26237811e-09
6.38032014e-07
3.97699662e-09
6.37601275e-07
3.66375685e-09
6.37208742e-07
3.32246325e-09
6.36858186e-07
2.95308238e-09
6.36553459e-07
2.55574539e-09
6.36298412e-07
2.13077724e-09
6.36096805e-07
1.67874022e-09
6.35952421e-07
1.20045526e-09
6.35869643e-07
6.96914213e-10
6.35855232e-07
1.68840845e-10
6.35910439e-07
-3.79774376e-10
6.36040089e-07
-9.47770592e-10
6.36247636e-07
-1.53228882e-09
6.36536582e-07
-2.13074118e-09
6.36909739e-07
-2.73965283e-09
6.37369149e-07
-3.35491051e-09
6.37916101e-07
-3.97186154e-09
6.38551036e-07
-4.58527372e-09
6.39273421e-07
-5.18937502e-09
6.40081634e-07
-5.7779568e-09
6.40972878e-07
-6.34449182e-09
6.4194313e-07
-6.88229478e-09
6.42987118e-07
-7.38470635e-09
6.44098353e-07
-7.84528481e-09
6.45269197e-07
-8.25802812e-09
6.4649099e-07
-8.61758484e-09
6.47754203e-07
-8.91943516e-09
6.49048648e-07
-9.16007143e-09
6.50363701e-07
-9.33711687e-09
6.5168856e-07
-9.44941536e-09
6.53012493e-07
-9.49704201e-09
6.54325095e-07
-9.48130312e-09
6.55616518e-07
-9.40463784e-09
6.56877666e-07
-9.27051909e-09
6.58100367e-07
-9.08329295e-09
6.59277483e-07
-8.84801369e-09
6.60402994e-07
-8.57024177e-09
6.61472021e-07
-8.25587002e-09
6.62480828e-07
-7.91094243e-09
6.63426777e-07
-7.5414763e-09
6.64308259e-07
-7.15333069e-09
6.65124612e-07
-6.75208465e-09
6.65876013e-07
-6.34293103e-09
6.66563371e-07
-5.93061788e-09
6.67188218e-07
-5.51940063e-09
6.67752595e-07
-5.11300784e-09
6.6825895e-07
-4.71464495e-09
6.68710036e-07
-4.32699774e-09
6.69108829e-07
-3.95225897e-09
6.69458454e-07
-3.59215228e-09
6.69762119e-07
-3.24797685e-09
6.70023067e-07
-2.92064706e-09
6.70244521e-07
-2.61073022e-09
6.70429644e-07
-2.31849745e-09
6.70581517e-07
-2.04397401e-09
6.70703124e-07
-1.78698172e-09
6.70797333e-07
-1.54717091e-09
6.70866868e-07
-1.32405284e-09
6.70914327e-07
-1.11705181e-09
6.70942279e-07
-9.25552955e-10
6.70952998e-07
-7.48934785e-10
6.70948603e-07
-5.86594157e-10
6.7093104e-07
-4.37836961e-10
6.70901622e-07
-3.0155484e-10
6.70861371e-07
-1.77072569e-10
6.70811043e-07
-6.37122372e-11
6.70752035e-07
3.80173179e-11
6.70687084e-07
1.29406681e-10
6.70616562e-07
2.11116658e-10
6.70541223e-07
2.83889564e-10
6.70461663e-07
3.48390187e-10
6.70378515e-07
4.05237032e-10
6.70292361e-07
4.55057613e-10
6.70203735e-07
4.98443334e-10
6.7011314e-07
5.35960278e-10
6.70021045e-07
5.68143875e-10
6.69927874e-07
5.95488582e-10
6.69834012e-07
6.18448211e-10
6.69739805e-07
6.37438958e-10
6.69645565e-07
6.52840193e-10
6.69551569e-07
6.64995273e-10
6.69458068e-07
6.74215497e-10
6.69365285e-07
6.80783467e-10
6.69273419e-07
6.84955247e-10
6.69182642e-07
6.86964407e-10
6.69093106e-07
6.87023836e-10
6.69004941e-07
6.85328569e-10
6.68918256e-07
6.82056197e-10
6.68833144e-07
6.77370023e-10
6.68749681e-07
6.71418453e-10
6.68667932e-07
6.64337315e-10
6.68587946e-07
6.56250033e-10
6.68509767e-07
6.47269083e-10
6.68433427e-07
6.37495569e-10
6.68358953e-07
6.27020914e-10
6.68286364e-07
6.15927501e-10
6.68215676e-07
6.04288364e-10
6.68146899e-07
5.92168857e-10
6.68080039e-07
5.79627287e-10
6.680151e-07
5.6671467e-10
6.67952083e-07
5.53476285e-10
6.67890986e-07
5.39952203e-10
6.67831804e-07
5.26176919e-10
6.67774532e-07
5.12180694e-10
6.67719162e-07
4.97989244e-10
6.67665686e-07
4.83624417e-10
6.67614093e-07
4.69103194e-10
6.67564374e-07
4.54438978e-10
6.67516515e-07
4.39638301e-10
6.67470501e-07
4.24713982e-10
6.67426319e-07
4.09621539e-10
6.67383904e-07
3.94551653e-10
6.67343314e-07
3.7865117e-10
6.67303824e-07
3.65649164e-10
3.40040415e-10
6.66722047e-07
-3.38013059e-10
6.66870734e-07
-8.87337486e-10
6.67078313e-07
-1.19538648e-09
6.67303676e-07
-1.21903425e-09
6.67504887e-07
-9.5969921e-10
6.67645792e-07
-4.56980744e-10
6.6768975e-07
2.190392e-10
6.67625193e-07
9.67639332e-10
6.67454313e-07
1.69314302e-09
6.6719061e-07
2.31835905e-09
6.66855156e-07
2.78977873e-09
6.66473529e-07
3.07719117e-09
6.66073078e-07
3.17164583e-09
6.65680603e-07
3.08147458e-09
6.65320779e-07
2.82611468e-09
6.65015132e-07
2.43134664e-09
6.64780856e-07
1.93026252e-09
6.64628774e-07
1.36953196e-09
6.64560564e-07
8.14593966e-10
6.64566661e-07
3.46182617e-10
6.6462734e-07
4.50387435e-11
6.64707913e-07
-2.17024067e-11
6.64762362e-07
1.77237625e-10
6.64758662e-07
6.15531456e-10
6.64668983e-07
1.23769697e-09
6.64476741e-07
1.96002367e-09
6.64178314e-07
2.6906265e-09
6.63782364e-07
3.34598802e-09
6.6330734e-07
3.86213688e-09
6.62778057e-07
4.199336e-09
6.62222269e-07
4.34133949e-09
6.616678e-07
4.29156855e-09
6.61140346e-07
4.06876621e-09
6.60661774e-07
3.7040483e-09
6.60248552e-07
3.23997604e-09
6.59910079e-07
2.73068206e-09
6.59646923e-07
2.24097265e-09
6.59449276e-07
1.84209455e-09
6.5929646e-07
1.60285073e-09
6.59158718e-07
1.57668542e-09
6.59001466e-07
1.78838462e-09
6.58791093e-07
2.22515817e-09
6.58501055e-07
2.83572864e-09
6.58116473e-07
3.53947923e-09
6.57636162e-07
4.24385991e-09
6.57071694e-07
4.86524066e-09
6.56443705e-07
5.34707199e-09
6.55776447e-07
5.66978605e-09
6.55092197e-07
5.84960254e-09
6.54407142e-07
5.92743641e-09
6.53729716e-07
5.95263207e-09
6.5306141e-07
5.96764605e-09
6.52399229e-07
5.99859438e-09
6.5173858e-07
6.0535233e-09
6.51075541e-07
6.12695652e-09
6.50407977e-07
6.20723922e-09
6.49735565e-07
6.28309804e-09
6.49059176e-07
6.34727512e-09
6.48380126e-07
6.39699771e-09
6.47699655e-07
6.43242789e-09
6.47018747e-07
6.45461894e-09
6.46338203e-07
6.46406895e-09
6.45658809e-07
6.46021241e-09
6.44981494e-07
6.44161849e-09
6.44307415e-07
6.40644546e-09
6.43637973e-07
6.35282021e-09
6.42974807e-07
6.27901441e-09
6.42319779e-07
6.1834447e-09
6.41674967e-07
6.06463089e-09
6.41042668e-07
5.92115703e-09
6.40425394e-07
5.75166145e-09
6.39825872e-07
5.55487293e-09
6.39247033e-07
5.32964271e-09
6.38692006e-07
5.07496052e-09
6.381641e-07
4.78997683e-09
6.376668e-07
4.47400722e-09
6.37203762e-07
4.12652703e-09
6.36778799e-07
3.74718143e-09
6.3639587e-07
3.33578995e-09
6.36059067e-07
2.89235207e-09
6.35772603e-07
2.41707346e-09
6.35540813e-07
1.9103935e-09
6.35368116e-07
1.37304807e-09
6.3525874e-07
8.06225511e-10
6.35215975e-07
2.11570917e-10
6.35245667e-07
-4.09465224e-10
6.35352428e-07
-1.05449932e-09
6.35540972e-07
-1.72076091e-09
6.35815195e-07
-2.40485383e-09
6.36178521e-07
-3.1028307e-09
6.36633804e-07
-3.81001032e-09
6.37183114e-07
-4.52095343e-09
6.37827574e-07
-5.22947962e-09
6.38567212e-07
-5.92872693e-09
6.39400827e-07
-6.61125341e-09
6.40325855e-07
-7.26917128e-09
6.41338281e-07
-7.89434307e-09
6.4243259e-07
-8.47861125e-09
6.43601777e-07
-9.0140432e-09
6.44837417e-07
-9.49321726e-09
6.46129803e-07
-9.90949882e-09
6.4746814e-07
-1.02572817e-08
6.48840799e-07
-1.05322253e-08
6.50235615e-07
-1.07314131e-08
6.51640199e-07
-1.08534694e-08
6.5304227e-07
-1.08985738e-08
6.54429965e-07
-1.08684529e-08
6.55792125e-07
-1.07662503e-08
6.57118543e-07
-1.05963881e-08
6.5840015e-07
-1.03643532e-08
6.59629155e-07
-1.00764767e-08
6.60799121e-07
-9.73967264e-09
6.61904987e-07
-9.36121073e-09
6.62943044e-07
-8.94848679e-09
6.63910869e-07
-8.50880213e-09
6.64807224e-07
-8.04920219e-09
6.65631937e-07
-7.57633188e-09
6.66385767e-07
-7.09631435e-09
6.67070263e-07
-6.61468778e-09
6.67687626e-07
-6.13635809e-09
6.68240572e-07
-5.66556996e-09
6.6873221e-07
-5.20592173e-09
6.69165931e-07
-4.76038027e-09
6.6954531e-07
-4.33132114e-09
6.69874018e-07
-3.92056477e-09
6.70155749e-07
-3.52943518e-09
6.70394168e-07
-3.1588139e-09
6.70592862e-07
-2.80919214e-09
6.7075531e-07
-2.48073316e-09
6.70884854e-07
-2.17332515e-09
6.70984674e-07
-1.88662731e-09
6.71057777e-07
-1.62011786e-09
6.71106997e-07
-1.37313497e-09
6.71134979e-07
-1.14491295e-09
6.71144143e-07
-9.34613215e-10
6.71136661e-07
-7.41367901e-10
6.71114438e-07
-5.64306454e-10
6.71079221e-07
-4.02579248e-10
6.71033074e-07
-2.55394436e-10
6.70978051e-07
-1.22059235e-10
6.70916021e-07
-1.84279016e-12
6.7084721e-07
1.06779193e-10
6.70772517e-07
2.0405298e-10
6.70692656e-07
2.90922798e-10
6.70608441e-07
3.68044428e-10
6.70520596e-07
4.36169571e-10
6.70429753e-07
4.96011089e-10
6.70336486e-07
5.48252709e-10
6.70241313e-07
5.93541554e-10
6.70144709e-07
6.32487672e-10
6.7004711e-07
6.65664379e-10
6.69948916e-07
6.93603293e-10
6.6985049e-07
7.16793573e-10
6.69752164e-07
7.35686106e-10
6.69654229e-07
7.50695779e-10
6.69556945e-07
7.62201775e-10
6.69460535e-07
7.7055022e-10
6.69365189e-07
7.76056117e-10
6.69271068e-07
7.79004464e-10
6.69178308e-07
7.79654074e-10
6.69087025e-07
7.78239253e-10
6.68997314e-07
7.74973034e-10
6.68909258e-07
7.70047945e-10
6.68822924e-07
7.63640008e-10
6.68738372e-07
7.55908399e-10
6.6865565e-07
7.46998315e-10
6.68574799e-07
7.3704137e-10
6.68495853e-07
7.26157389e-10
6.68418837e-07
7.14454052e-10
6.68343774e-07
7.02028886e-10
6.68270678e-07
6.88969988e-10
6.68199558e-07
6.75355666e-10
6.6813042e-07
6.61256216e-10
6.68063265e-07
6.46734523e-10
6.67998087e-07
6.31845639e-10
6.67934879e-07
6.16638372e-10
6.67873632e-07
6.01155751e-10
6.67814333e-07
5.85434536e-10
6.67756967e-07
5.69506682e-10
6.67701519e-07
5.53399049e-10
6.67647972e-07
5.37134274e-10
6.6759631e-07
5.20729873e-10
6.67546515e-07
5.04199939e-10
6.67498569e-07
4.87551851e-10
6.6745245e-07
4.70801197e-10
6.67408142e-07
4.53900844e-10
6.67365597e-07
4.37062852e-10
6.67324911e-07
4.1932423e-10
6.67285742e-07
4.04715059e-10
3.75917331e-10
6.6672381e-07
-3.94866807e-10
6.66877601e-07
-1.04127896e-09
6.67093107e-07
-1.41103e-09
6.6732728e-07
-1.45318256e-09
6.67535201e-07
-1.16753823e-09
6.67675312e-07
-5.97029911e-10
6.6772241e-07
1.72169443e-10
6.6766014e-07
1.0300711e-09
6.67488149e-07
1.86532231e-09
6.67219145e-07
2.58755746e-09
6.66874784e-07
3.13433577e-09
6.66481877e-07
3.47030006e-09
6.6606934e-07
3.58439041e-09
6.65665729e-07
3.48529579e-09
6.65297444e-07
3.19461254e-09
6.64987498e-07
2.74151179e-09
6.64754135e-07
2.1638544e-09
6.64608604e-07
1.51530976e-09
6.64552177e-07
8.71309396e-10