/*--------------------------------*- C++ -*----------------------------------*\
| =========                 |                                                 |
| \\      /  F ield         | OpenFOAM: The Open Source CFD Toolbox           |
|  \\    /   O peration     | Version:  v2012                                 |
|   \\  /    A nd           | Website:  www.openfoam.com                      |
|    \\/     M anipulation  |                                                 |
\*---------------------------------------------------------------------------*/
FoamFile
{
    version     2.0;
    format      ascii;
    class       volVectorField;
    location    "2.09";
    object      HbyA;
}
// * * * * * * * * * * * * * * * * * * * * * * * * * * * * * * * * * * * * * //

dimensions      [0 1 -1 0 0 0 0];


internalField   nonuniform List<vector> 
28416
(
(0.0999986839 5.40526159e-06 0)
(0.0999923123 8.67096455e-06 0)
(0.0999843469 3.4374858e-06 0)
(0.0999780452 -9.19696169e-06 0)
(0.0999757365 -2.77918392e-05 0)
(0.0999798137 -5.16592194e-05 0)
(0.0999924648 -7.98030939e-05 0)
(0.100015178 -0.000109410582 0)
(0.100048252 -0.000135763574 0)
(0.100090185 -0.000153322921 0)
(0.100137656 -0.000157377472 0)
(0.100186064 -0.000145480848 0)
(0.100230399 -0.000118072317 0)
(0.100266155 -7.81564639e-05 0)
(0.100290103 -3.03429474e-05 0)
(0.10030085 2.03674484e-05 0)
(0.100298836 6.91907554e-05 0)
(0.100285681 0.000111468203 0)
(0.100263439 0.000143833832 0)
(0.100234458 0.000164512209 0)
(0.100201349 0.000173019426 0)
(0.100166642 0.00017001792 0)
(0.100132579 0.000157186358 0)
(0.100101097 0.000137150428 0)
(0.100073867 0.000113309524 0)
(0.100052073 8.96285568e-05 0)
(0.100035949 7.04136071e-05 0)
(0.100024378 5.99386654e-05 0)
(0.100014755 6.18425875e-05 0)
(0.100003243 7.84194296e-05 0)
(0.099985445 0.000109972372 0)
(0.0999572416 0.000154452733 0)
(0.0999155279 0.000207674487 0)
(0.0998587239 0.000264166176 0)
(0.0997869629 0.000318416762 0)
(0.0997018763 0.000366123778 0)
(0.0996060297 0.000405045887 0)
(0.0995021999 0.000435192302 0)
(0.0993927232 0.000458329842 0)
(0.0992791056 0.000477051389 0)
(0.0991619705 0.000493797456 0)
(0.0990412889 0.000510186078 0)
(0.0989167411 0.000526817328 0)
(0.0987880451 0.000543488789 0)
(0.098655147 0.000559606782 0)
(0.0985182566 0.000574562961 0)
(0.0983777794 0.000587939999 0)
(0.0982342191 0.000599535806 0)
(0.0980881055 0.000609280488 0)
(0.0979399647 0.000617136418 0)
(0.0977903229 0.000623037694 0)
(0.097639722 0.00062687892 0)
(0.0974887311 0.000628533836 0)
(0.0973379489 0.000627879358 0)
(0.097187999 0.000624810789 0)
(0.0970395218 0.000619246304 0)
(0.0968931668 0.000611125309 0)
(0.0967495865 0.000600405624 0)
(0.0966094307 0.000587061831 0)
(0.0964733412 0.000571084848 0)
(0.0963419458 0.000552482036 0)
(0.0962158521 0.000531277464 0)
(0.0960956412 0.000507512518 0)
(0.0959818627 0.000481247262 0)
(0.0958750304 0.000452562723 0)
(0.0957756215 0.000421563749 0)
(0.095684077 0.000388381409 0)
(0.0956008063 0.000353173559 0)
(0.0955261926 0.000316122434 0)
(0.0954605975 0.000277429078 0)
(0.0954043643 0.000237305339 0)
(0.0953578179 0.000195965889 0)
(0.0953212714 0.000153612344 0)
(0.0952951044 0.000110433899 0)
(0.0952796624 6.64998727e-05 0)
(0.0952744367 2.17240185e-05 0)
(0.0952790026 -2.31552748e-05 0)
(0.0952941862 -6.76713781e-05 0)
(0.0953204203 -0.000111957427 0)
(0.0953573095 -0.000155894899 0)
(0.095404581 -0.000199215591 0)
(0.0954620769 -0.000241684905 0)
(0.0955295202 -0.000283078907 0)
(0.0956065265 -0.000323155476 0)
(0.0956926538 -0.000361660028 0)
(0.0957874031 -0.000398331484 0)
(0.0958902128 -0.000432903712 0)
(0.0960004656 -0.000465110573 0)
(0.0961175005 -0.000494696333 0)
(0.096240621 -0.00052142833 0)
(0.0963691007 -0.00054510842 0)
(0.0965021879 -0.000565581011 0)
(0.0966391108 -0.000582737026 0)
(0.0967790841 -0.000596514409 0)
(0.0969213167 -0.000606896543 0)
(0.0970650214 -0.000613909805 0)
(0.0972094245 -0.000617620907 0)
(0.0973537761 -0.000618134122 0)
(0.0974973589 -0.000615588153 0)
(0.0976394963 -0.000610152469 0)
(0.0977795588 -0.000602023036 0)
(0.0979169696 -0.000591417521 0)
(0.0980512081 -0.000578570163 0)
(0.0981818128 -0.000563726497 0)
(0.0983083825 -0.000547138153 0)
(0.0984305765 -0.000529057949 0)
(0.0985481141 -0.000509735409 0)
(0.0986607726 -0.000489412867 0)
(0.0987683846 -0.000468322167 0)
(0.0988708355 -0.000446681969 0)
(0.0989680588 -0.000424695601 0)
(0.0990600332 -0.000402549443 0)
(0.0991467776 -0.00038041186 0)
(0.0992283469 -0.000358432667 0)
(0.0993048282 -0.000336743176 0)
(0.099376336 -0.000315456718 0)
(0.0994430086 -0.000294669494 0)
(0.0995050033 -0.000274461667 0)
(0.0995624934 -0.000254898573 0)
(0.0996156641 -0.000236031973 0)
(0.0996647094 -0.000217901328 0)
(0.0997098294 -0.000200535057 0)
(0.0997512275 -0.000183951833 0)
(0.0997891086 -0.000168161973 0)
(0.0998236769 -0.00015316895 0)
(0.0998551344 -0.000138971093 0)
(0.0998836786 -0.00012556326 0)
(0.0999094999 -0.000112938015 0)
(0.0999327791 -0.000101085822 0)
(0.0999536863 -8.99943063e-05 0)
(0.0999723796 -7.96469967e-05 0)
(0.0999890063 -7.00220324e-05 0)
(0.100003705 -6.10918261e-05 0)
(0.100016608 -5.28237683e-05 0)
(0.100027841 -4.5181527e-05 0)
(0.100037526 -3.81264902e-05 0)
(0.100045779 -3.16188718e-05 0)
(0.100052714 -2.56183016e-05 0)
(0.100058435 -2.00839642e-05 0)
(0.100063047 -1.49745873e-05 0)
(0.10006665 -1.02483105e-05 0)
(0.100069341 -5.86393713e-06 0)
(0.100071235 -1.77653508e-06 0)
(0.100072432 2.0397813e-06 0)
(0.100072918 5.63012055e-06 0)
(0.100072772 9.07887678e-06 0)
(0.100072199 1.23616303e-05 0)
(0.100071301 1.54205135e-05 0)
(0.100070111 1.82205336e-05 0)
(0.100068646 2.07437515e-05 0)
(0.10006692 2.29838599e-05 0)
(0.100064941 2.49471673e-05 0)
(0.100062717 2.66495721e-05 0)
(0.100060259 2.8112315e-05 0)
(0.100057581 2.9358816e-05 0)
(0.100054702 3.04124636e-05 0)
(0.100051643 3.12951514e-05 0)
(0.100048424 3.2026497e-05 0)
(0.100045068 3.2623571e-05 0)
(0.100041594 3.31009322e-05 0)
(0.100038024 3.34708156e-05 0)
(0.100034375 3.37433643e-05 0)
(0.100030663 3.39269082e-05 0)
(0.100026905 3.40282832e-05 0)
(0.100023112 3.40531804e-05 0)
(0.100019295 3.40065054e-05 0)
(0.100015464 3.38927129e-05 0)
(0.100011626 3.37160823e-05 0)
(0.100007789 3.34809093e-05 0)
(0.100003958 3.31916072e-05 0)
(0.100000137 3.28527198e-05 0)
(0.0999963307 3.24688688e-05 0)
(0.0999925436 3.20446627e-05 0)
(0.0999887793 3.15845982e-05 0)
(0.0999850415 3.10930008e-05 0)
(0.0999813337 3.05738753e-05 0)
(0.0999776591 3.00307736e-05 0)
(0.099974021 2.94667944e-05 0)
(0.0999704223 2.88846358e-05 0)
(0.0999668657 2.82866339e-05 0)
(0.0999633536 2.76747958e-05 0)
(0.0999598881 2.70508259e-05 0)
(0.0999564717 2.64162117e-05 0)
(0.0999531041 2.57721246e-05 0)
(0.0999497935 2.5120256e-05 0)
(0.0999465197 2.44596774e-05 0)
(0.0999433616 2.38000019e-05 0)
(0.0999400726 2.31035118e-05 0)
(0.0999375588 2.2522659e-05 0)
(0.0999330138 2.13823125e-05 0)
(0.0999988054 1.25618481e-05 0)
(0.0999918018 2.2852158e-05 0)
(0.0999812579 1.70763681e-05 0)
(0.0999713431 -2.30190093e-06 0)
(0.0999657611 -3.31213295e-05 0)
(0.0999672317 -7.38953692e-05 0)
(0.0999784227 -0.000122688268 0)
(0.100001578 -0.000174765734 0)
(0.100037588 -0.000222208889 0)
(0.100085184 -0.000255644112 0)
(0.100140747 -0.000266984057 0)
(0.100198874 -0.000251841355 0)
(0.100253439 -0.00021063459 0)
(0.100298739 -0.00014819003 0)
(0.100330586 -7.22485313e-05 0)
(0.100346719 8.25368718e-06 0)
(0.100346163 8.44975061e-05 0)
(0.100330044 0.000150134554 0)
(0.100301651 0.000200600154 0)
(0.100264736 0.000233381684 0)
(0.100223035 0.000247922145 0)
(0.100180137 0.000245287368 0)
(0.100139345 0.000227825455 0)
(0.100103497 0.000199033628 0)
(0.10007474 0.000163541859 0)
(0.10005433 0.000127100239 0)
(0.100042337 9.64264864e-05 0)
(0.100037333 7.86398958e-05 0)
(0.100036286 8.0139856e-05 0)
(0.100034756 0.000105145946 0)
(0.100027417 0.000154401806 0)
(0.100008898 0.000224591782 0)
(0.0999748244 0.00030879246 0)
(0.0999226957 0.000397940139 0)
(0.0998523215 0.000482937005 0)
(0.0997656635 0.000556756773 0)
(0.099666135 0.000615870384 0)
(0.0995575914 0.000660539264 0)
(0.0994433529 0.000693950231 0)
(0.0993255699 0.000720611159 0)
(0.0992050838 0.000744678107 0)
(0.0990817276 0.000768823621 0)
(0.0989548526 0.000793931416 0)
(0.0988238306 0.000819502905 0)
(0.0986883588 0.000844395865 0)
(0.0985485292 0.000867489645 0)
(0.0984047319 0.000888039513 0)
(0.0982575055 0.000905706384 0)
(0.0981074212 0.000920397831 0)
(0.0979550327 0.000932083058 0)
(0.0978008805 0.000940681776 0)
(0.0976455166 0.000946043353 0)
(0.0974895253 0.000947980067 0)
(0.0973335293 0.000946309947 0)
(0.097178184 0.000940883533 0)
(0.0970241665 0.000931591235 0)
(0.0968721655 0.000918359822 0)
(0.0967228732 0.000901147142 0)
(0.096576979 0.000879939458 0)
(0.0964351635 0.000854751407 0)
(0.0962980929 0.000825626908 0)
(0.0961664128 0.000792639656 0)
(0.0960407439 0.000755892768 0)
(0.0959216769 0.000715517661 0)
(0.0958097708 0.000671672313 0)
(0.0957055511 0.000624538962 0)
(0.095609509 0.000574321338 0)
(0.095522101 0.000521241831 0)
(0.0954437491 0.000465538744 0)
(0.0953748402 0.000407463532 0)
(0.0953157281 0.000347277741 0)
(0.0952667259 0.000285249125 0)
(0.095228121 0.000221647544 0)
(0.095200145 0.000156728859 0)
(0.0951828328 9.06602972e-05 0)
(0.0951764875 2.36113508e-05 0)
(0.0951813949 -4.37725767e-05 0)
(0.0951973666 -0.000110917102 0)
(0.095224384 -0.000177680411 0)
(0.0952624802 -0.000243785825 0)
(0.0953115087 -0.000308839248 0)
(0.0953712667 -0.000372473071 0)
(0.0954414908 -0.000434321774 0)
(0.0955218278 -0.000493996397 0)
(0.0956118433 -0.00055109811 0)
(0.0957110304 -0.000605232047 0)
(0.0958188106 -0.000656014687 0)
(0.0959345386 -0.000703081884 0)
(0.0960575109 -0.000746098547 0)
(0.096186974 -0.000784767849 0)
(0.0963221314 -0.000818838978 0)
(0.0964621514 -0.000848113523 0)
(0.0966061754 -0.000872450619 0)
(0.0967533286 -0.000891770561 0)
(0.0969027303 -0.00090605661 0)
(0.0970535061 -0.000915354805 0)
(0.0972048001 -0.000919771885 0)
(0.0973557864 -0.000919471517 0)
(0.0975056793 -0.000914669109 0)
(0.0976537427 -0.000905625543 0)
(0.0977992977 -0.000892640102 0)
(0.0979417283 -0.000876042892 0)
(0.0980804855 -0.000856187015 0)
(0.0982150899 -0.000833440747 0)
(0.0983451324 -0.000808179974 0)
(0.0984702741 -0.000780781112 0)
(0.0985902441 -0.000751614672 0)
(0.0987048372 -0.000721039612 0)
(0.0988139099 -0.000689398564 0)
(0.098917376 -0.000657013954 0)
(0.099015202 -0.000624185018 0)
(0.0991074016 -0.000591185693 0)
(0.0991940308 -0.000558263309 0)
(0.099275182 -0.00052563798 0)
(0.0993509793 -0.000493502655 0)
(0.0994215737 -0.00046202373 0)
(0.0994871379 -0.000431342083 0)
(0.0995478623 -0.000401574502 0)
(0.0996039504 -0.000372815388 0)
(0.0996556154 -0.000345138607 0)
(0.0997030769 -0.000318599491 0)
(0.0997465576 -0.000293236896 0)
(0.0997862808 -0.000269075275 0)
(0.0998224681 -0.000246126703 0)
(0.0998553369 -0.000224392711 0)
(0.0998850989 -0.000203865785 0)
(0.0999119582 -0.000184530511 0)
(0.0999361109 -0.000166364555 0)
(0.0999577441 -0.000149339612 0)
(0.0999770357 -0.000133422313 0)
(0.0999941539 -0.000118574865 0)
(0.100009257 -0.000104755132 0)
(0.100022494 -9.19169031e-05 0)
(0.100034006 -8.00105009e-05 0)
(0.100043927 -6.89835848e-05 0)
(0.100052381 -5.87821439e-05 0)
(0.100059491 -4.93514612e-05 0)
(0.100065368 -4.06368738e-05 0)
(0.100070122 -3.2584314e-05 0)
(0.100073857 -2.51409968e-05 0)
(0.100076675 -1.82563768e-05 0)
(0.100078676 -1.18848202e-05 0)
(0.100079958 -5.98897162e-06 0)
(0.100080623 -5.60422206e-07 0)
(0.100080723 4.34997214e-06 0)
(0.100080257 8.86460615e-06 0)
(0.100079269 1.3046204e-05 0)
(0.100077849 1.69049031e-05 0)
(0.100076073 2.04392377e-05 0)
(0.100073992 2.36489594e-05 0)
(0.100071648 2.65392516e-05 0)
(0.100069074 2.91194106e-05 0)
(0.100066295 3.14026662e-05 0)
(0.100063331 3.34060634e-05 0)
(0.100060199 3.51489346e-05 0)
(0.100056916 3.66514492e-05 0)
(0.100053499 3.79336739e-05 0)
(0.100049962 3.90149588e-05 0)
(0.100046323 3.99135376e-05 0)
(0.100042596 4.06463496e-05 0)
(0.100038797 4.12289701e-05 0)
(0.100034941 4.16753925e-05 0)
(0.100031039 4.1998021e-05 0)
(0.100027105 4.22078292e-05 0)
(0.100023148 4.23145541e-05 0)
(0.100019179 4.23268949e-05 0)
(0.100015206 4.22527051e-05 0)
(0.100011236 4.20991634e-05 0)
(0.100007277 4.18729157e-05 0)
(0.100003332 4.15801824e-05 0)
(0.0999994082 4.12268296e-05 0)
(0.099995509 4.08184052e-05 0)
(0.0999916384 4.03601434e-05 0)
(0.0999878001 3.98569452e-05 0)
(0.0999839973 3.93133239e-05 0)
(0.0999802324 3.87334832e-05 0)
(0.0999765081 3.81213724e-05 0)
(0.0999728264 3.7480622e-05 0)
(0.0999691896 3.68144952e-05 0)
(0.0999655995 3.61258907e-05 0)
(0.0999620579 3.54173623e-05 0)
(0.0999585663 3.46911212e-05 0)
(0.0999551268 3.39491171e-05 0)
(0.0999517387 3.31928216e-05 0)
(0.0999484105 3.24242295e-05 0)
(0.0999451205 3.16417932e-05 0)
(0.0999419487 3.08563573e-05 0)
(0.0999386326 3.00252978e-05 0)
(0.0999361018 2.93213915e-05 0)
(0.0999314212 2.80028799e-05 0)
(0.099998753 1.67791502e-05 0)
(0.0999920371 3.22578444e-05 0)
(0.099982321 2.84781085e-05 0)
(0.0999731861 8.94248558e-06 0)
(0.0999684092 -2.38256941e-05 0)
(0.0999709903 -6.87345921e-05 0)
(0.0999831351 -0.00012373824 0)
(0.100006746 -0.0001835486 0)
(0.100042565 -0.000239222212 0)
(0.10008934 -0.000279960286 0)
(0.100143645 -0.000296235509 0)
(0.100200386 -0.000282657242 0)
(0.100253759 -0.000239348369 0)
(0.100298344 -0.000171556389 0)
(0.100329903 -8.80232522e-05 0)
(0.100345699 1.0221322e-06 0)
(0.100346168 8.61840471e-05 0)
(0.100333304 0.000159625393 0)
(0.100308849 0.000216061664 0)
(0.100275669 0.00025273113 0)
(0.100237301 0.000269080659 0)
(0.100197237 0.000266290878 0)
(0.100158608 0.000246875089 0)
(0.100124114 0.000214459056 0)
(0.100095913 0.000173885414 0)
(0.100075412 0.00013140505 0)
(0.100062945 9.45870518e-05 0)
(0.100057381 7.16411969e-05 0)
(0.100055864 7.00971259e-05 0)
(0.100053976 9.51334501e-05 0)
(0.100046426 0.000148063227 0)
(0.100028021 0.000225520393 0)
(0.0999945803 0.000319803329 0)
(0.0999436558 0.000420458762 0)
(0.0998749178 0.00051671622 0)
(0.0997900407 0.000600040714 0)
(0.0996920994 0.000665970669 0)
(0.0995846657 0.000714627153 0)
(0.0994709038 0.000749781151 0)
(0.0993529522 0.000776938557 0)
(0.0992317494 0.000801263006 0)
(0.0991072712 0.000826122299 0)
(0.0989789986 0.000852655348 0)
(0.0988463847 0.000880248408 0)
(0.0987091547 0.000907456102 0)
(0.0985673918 0.000932850647 0)
(0.0984214641 0.000955485007 0)
(0.0982718932 0.00097494008 0)
(0.0981192467 0.000991123526 0)
(0.097964088 0.00100402915 0)
(0.0978069756 0.00101358895 0)
(0.0976484838 0.0010196422 0)
(0.0974892202 0.00102197658 0)
(0.097329832 0.00102038329 0)
(0.0971710002 0.0010146921 0)
(0.0970134294 0.00100478115 0)
(0.0968578375 0.000990572246 0)
(0.0967049475 0.000972023529 0)
(0.0965554804 0.000949125343 0)
(0.0964101488 0.000921899305 0)
(0.0962696505 0.000890398431 0)
(0.0961346618 0.000854706658 0)
(0.0960058308 0.000814937455 0)
(0.0958837718 0.000771232133 0)
(0.0957690601 0.000723758625 0)
(0.0956622293 0.000672710995 0)
(0.0955637712 0.000618309002 0)
(0.0954741394 0.000560796593 0)
(0.0953937539 0.000500438453 0)
(0.0953230051 0.000437514684 0)
(0.095262255 0.000372315001 0)
(0.0952118376 0.000305133362 0)
(0.0951720516 0.00023627057 0)
(0.0951431602 0.000166020438 0)
(0.0951254026 9.47047311e-05 0)
(0.0951187771 2.27533295e-05 0)
(0.0951232736 -4.96338395e-05 0)
(0.0951391434 -0.000122136895 0)
(0.0951665151 -0.000194337643 0)
(0.0952053139 -0.000265883348 0)
(0.095255383 -0.000336389086 0)
(0.0953165279 -0.000405438947 0)
(0.0953884878 -0.000472609052 0)
(0.0954709102 -0.000537465651 0)
(0.0955633598 -0.000599566732 0)
(0.095665327 -0.000658469861 0)
(0.0957762273 -0.000713740335 0)
(0.0958954017 -0.000764960206 0)
(0.0960221232 -0.0008117397 0)
(0.0961556034 -0.000853730005 0)
(0.0962950008 -0.000890635351 0)
(0.0964394301 -0.000922222764 0)
(0.0965879738 -0.000948328796 0)
(0.0967396946 -0.000968863142 0)
(0.0968936496 -0.000983809555 0)
(0.0970489034 -0.000993224529 0)
(0.0972045427 -0.000997234232 0)
(0.0973596884 -0.000996029871 0)
(0.0975135077 -0.000989861628 0)
(0.097665224 -0.00097903133 0)
(0.0978141254 -0.000963884112 0)
(0.0979595708 -0.0009447994 0)
(0.0981009939 -0.000922181602 0)
(0.0982379063 -0.000896450849 0)
(0.0983698973 -0.000868034107 0)
(0.098496633 -0.000837356958 0)
(0.0986178538 -0.000804836221 0)
(0.0987333706 -0.000770873571 0)
(0.0988430601 -0.000735850245 0)
(0.0989468594 -0.000700122814 0)
(0.0990447604 -0.000664020023 0)
(0.0991368036 -0.000627840645 0)
(0.099223072 -0.000591852283 0)
(0.0993036855 -0.000556290994 0)
(0.0993787946 -0.000521361709 0)
(0.0994485753 -0.000487239248 0)
(0.0995132239 -0.000454069801 0)
(0.0995729521 -0.000421972764 0)
(0.0996279831 -0.000391042817 0)
(0.0996785474 -0.000361352092 0)
(0.0997248797 -0.000332952378 0)
(0.099767216 -0.00030587727 0)
(0.0998057908 -0.000280144218 0)
(0.0998408354 -0.000255756539 0)
(0.0998725771 -0.000232705554 0)
(0.0999012373 -0.000210972997 0)
(0.0999270305 -0.0001905335 0)
(0.0999501619 -0.00017135661 0)
(0.0999708254 -0.00015340782 0)
(0.0999892021 -0.000136648656 0)
(0.100005461 -0.000121036436 0)
(0.100019758 -0.00010652418 0)
(0.100032242 -9.30610006e-05 0)
(0.100043049 -8.05930157e-05 0)
(0.100052311 -6.90645246e-05 0)
(0.100060151 -5.8419144e-05 0)
(0.100066687 -4.86008165e-05 0)
(0.100072029 -3.95547175e-05 0)
(0.100076282 -3.1228106e-05 0)
(0.100079545 -2.35712003e-05 0)
(0.10008191 -1.65379487e-05 0)
(0.100083459 -1.00871704e-05 0)
(0.100084265 -4.18023646e-06 0)
(0.100084326 1.22429661e-06 0)
(0.100083758 6.21243347e-06 0)
(0.100082771 1.07798204e-05 0)
(0.100081442 1.49493397e-05 0)
(0.1000798 1.87397624e-05 0)
(0.100077862 2.21638294e-05 0)
(0.100075655 2.52405377e-05 0)
(0.100073204 2.79895415e-05 0)
(0.100070526 3.04310141e-05 0)
(0.100067638 3.25866041e-05 0)
(0.100064557 3.44772335e-05 0)
(0.100061303 3.61225764e-05 0)
(0.100057894 3.75420704e-05 0)
(0.10005435 3.87548053e-05 0)
(0.100050689 3.97789974e-05 0)
(0.100046932 4.06315932e-05 0)
(0.100043095 4.13279443e-05 0)
(0.100039195 4.18816419e-05 0)
(0.100035247 4.2304786e-05 0)
(0.100031263 4.2608208e-05 0)
(0.100027256 4.28016183e-05 0)
(0.100023236 4.28937795e-05 0)
(0.100019211 4.28926899e-05 0)
(0.100015189 4.28057569e-05 0)
(0.100011177 4.26399405e-05 0)
(0.10000718 4.24018568e-05 0)
(0.100003203 4.2097834e-05 0)
(0.0999992486 4.1733929e-05 0)
(0.0999953221 4.13159118e-05 0)
(0.0999914262 4.08492311e-05 0)
(0.0999875639 4.03389705e-05 0)
(0.0999837381 3.97897833e-05 0)
(0.0999799516 3.92059719e-05 0)
(0.0999762071 3.85915514e-05 0)
(0.0999725071 3.79501963e-05 0)
(0.0999688536 3.72851954e-05 0)
(0.0999652485 3.65994561e-05 0)
(0.0999616934 3.58955259e-05 0)
(0.0999581896 3.51755907e-05 0)
(0.099954739 3.44415395e-05 0)
(0.0999513407 3.36946996e-05 0)
(0.0999480022 3.29367121e-05 0)
(0.099944702 3.21657098e-05 0)
(0.0999415182 3.13908287e-05 0)
(0.0999381992 3.05734517e-05 0)
(0.0999356583 2.98697785e-05 0)
(0.0999310721 2.85822627e-05 0)
(0.0999986956 2.18734634e-05 0)
(0.0999911939 4.27044228e-05 0)
(0.0999800474 3.86755578e-05 0)
(0.0999696982 1.4043424e-05 0)
(0.0999639399 -2.80997351e-05 0)
(0.099965547 -8.6265472e-05 0)
(0.0999774775 -0.000157718624 0)
(0.100002133 -0.000235690556 0)
(0.10004046 -0.000308685527 0)
(0.100091227 -0.000362757336 0)
(0.100150767 -0.000385517927 0)
(0.100213486 -0.000369848937 0)
(0.100272926 -0.000315725886 0)
(0.100322972 -0.000229757865 0)
(0.10035893 -0.000123107309 0)
(0.100378491 -8.69594474e-06 0)
(0.100380554 0.000101348592 0)
(0.100365989 0.000196463305 0)
(0.100338247 0.000269588352 0)
(0.100301232 0.000317197887 0)
(0.100258913 0.000338612535 0)
(0.100215215 0.000335327104 0)
(0.100173805 0.000310525124 0)
(0.100137873 0.000268851021 0)
(0.10010991 0.000216506212 0)
(0.100091409 0.000161475646 0)
(0.100082499 0.000113429224 0)
(0.100081652 8.2899697e-05 0)
(0.100085633 7.96205923e-05 0)
(0.100089766 0.000110324602 0)
(0.100088408 0.000176726149 0)
(0.100075767 0.000274509941 0)
(0.100047015 0.000393820359 0)
(0.0999992619 0.000521301957 0)
(0.0999320481 0.00064321056 0)
(0.0998472052 0.000748664453 0)
(0.0997481563 0.000831976029 0)
(0.0996388858 0.000893293378 0)
(0.0995229205 0.000937415331 0)
(0.099402641 0.000971361461 0)
(0.0992790902 0.00100173156 0)
(0.0991522358 0.00103284919 0)
(0.0990214842 0.00106619722 0)
(0.0988861948 0.00110101138 0)
(0.0987460125 0.00113544753 0)
(0.0986009683 0.00116766648 0)
(0.0984514053 0.00119643331 0)
(0.0982978404 0.00122118746 0)
(0.0981408474 0.00124179277 0)
(0.0979810028 0.00125823221 0)
(0.0978188823 0.00127041715 0)
(0.0976550824 0.00127814461 0)
(0.0974902393 0.0012811471 0)
(0.0973250342 0.00127916185 0)
(0.0971601876 0.00127197547 0)
(0.0969964477 0.00125943684 0)
(0.0968345782 0.00124145142 0)
(0.0966753489 0.0012179721 0)
(0.0965195268 0.00118899415 0)
(0.0963678686 0.00115455447 0)
(0.0962211133 0.00111473257 0)
(0.0960799757 0.00106965074 0)
(0.095945141 0.00101947273 0)
(0.0958172617 0.000964400659 0)
(0.0956969561 0.000904670454 0)
(0.0955848077 0.000840545893 0)
(0.0954813632 0.000772312018 0)
(0.0953871291 0.000700269391 0)
(0.0953025668 0.00062473026 0)
(0.0952280911 0.000546016477 0)
(0.0951640708 0.000464459004 0)
(0.0951108309 0.000380397161 0)
(0.0950686577 0.000294177053 0)
(0.095037805 0.000206154576 0)
(0.0950184689 0.000116681065 0)
(0.0950108352 2.60992129e-05 0)
(0.0950150808 -6.50595757e-05 0)
(0.0950312672 -0.000156300385 0)
(0.0950593966 -0.000247179894 0)
(0.095099451 -0.000337232348 0)
(0.0951513541 -0.000425951539 0)
(0.0952149514 -0.000512804055 0)
(0.0952900058 -0.00059724331 0)
(0.0953761887 -0.000678708147 0)
(0.0954730763 -0.000756627114 0)
(0.0955801496 -0.000830431859 0)
(0.0956967949 -0.000899571221 0)
(0.0958223074 -0.000963523951 0)
(0.0959558973 -0.00102181126 0)
(0.0960967002 -0.00107400908 0)
(0.0962437871 -0.00111975932 0)
(0.0963961779 -0.00115877986 0)
(0.0965528547 -0.0011908727 0)
(0.0967127773 -0.00121592991 0)
(0.0968748994 -0.00123393668 0)
(0.097038185 -0.0012449711 0)
(0.0972016247 -0.00124920094 0)
(0.0973642512 -0.00124687761 0)
(0.097525153 -0.00123832786 0)
(0.0976834861 -0.00122394381 0)
(0.0978384834 -0.00120417168 0)
(0.0979894615 -0.00117949988 0)
(0.0981358251 -0.00115044678 0)
(0.0982770693 -0.00111754881 0)
(0.0984127787 -0.00108134908 0)
(0.0985426258 -0.00104238697 0)
(0.098666367 -0.00100118886 0)
(0.0987838373 -0.000958260278 0)
(0.0988949444 -0.000914079334 0)
(0.0989996618 -0.000869091694 0)
(0.0990980213 -0.000823706878 0)
(0.0991901063 -0.00077829587 0)
(0.0992760437 -0.000733189908 0)
(0.0993559973 -0.00068868024 0)
(0.099430161 -0.00064501877 0)
(0.0994987527 -0.000602419422 0)
(0.0995620083 -0.000561060033 0)
(0.0996201772 -0.000521084726 0)
(0.0996735172 -0.000482606585 0)
(0.0997222909 -0.000445710506 0)
(0.0997667619 -0.000410456208 0)
(0.0998071924 -0.000376881346 0)
(0.0998438405 -0.000345004663 0)
(0.0998769576 -0.000314829036 0)
(0.0999067862 -0.000286344068 0)
(0.0999335569 -0.000259527874 0)
(0.099957488 -0.000234348074 0)
(0.0999787862 -0.000210762637 0)
(0.0999976477 -0.000188721151 0)
(0.10001426 -0.000168166634 0)
(0.100028799 -0.000149037489 0)
(0.100041435 -0.000131269037 0)
(0.100052324 -0.000114794507 0)
(0.100061612 -9.95456806e-05 0)
(0.100069437 -8.54535375e-05 0)
(0.100075926 -7.24489512e-05 0)
(0.100081196 -6.0463358e-05 0)
(0.100085358 -4.94293158e-05 0)
(0.100088515 -3.92809202e-05 0)
(0.100090763 -2.99540796e-05 0)
(0.100092194 -2.13866662e-05 0)
(0.100092899 -1.35191951e-05 0)
(0.100092978 -6.29557545e-06 0)
(0.100092586 3.24705929e-07 0)
(0.100091723 6.40732994e-06 0)
(0.100090316 1.1997994e-05 0)
(0.100088435 1.7121762e-05 0)
(0.100086157 2.17978375e-05 0)
(0.100083559 2.60464099e-05 0)
(0.100080702 2.98805077e-05 0)
(0.100077627 3.33133103e-05 0)
(0.10007437 3.636232e-05 0)
(0.100070957 3.90480242e-05 0)
(0.100067406 4.13942284e-05 0)
(0.100063732 4.34272921e-05 0)
(0.100059951 4.51737961e-05 0)
(0.100056079 4.66592907e-05 0)
(0.100052128 4.79077076e-05 0)
(0.100048111 4.89410282e-05 0)
(0.10004404 4.97791137e-05 0)
(0.100039927 5.04397084e-05 0)
(0.100035782 5.09388179e-05 0)
(0.100031616 5.12909691e-05 0)
(0.100027439 5.15093447e-05 0)
(0.100023258 5.16059056e-05 0)
(0.100019083 5.15915105e-05 0)
(0.10001492 5.14760308e-05 0)
(0.100010776 5.12684647e-05 0)
(0.100006657 5.09770502e-05 0)
(0.100002568 5.06093711e-05 0)
(0.0999985126 5.01724492e-05 0)
(0.099994495 4.96728187e-05 0)
(0.0999905183 4.91165849e-05 0)
(0.099986585 4.85094691e-05 0)
(0.0999826974 4.7856868e-05 0)
(0.0999788574 4.71637817e-05 0)
(0.0999750667 4.64347426e-05 0)
(0.0999713266 4.5673849e-05 0)
(0.0999676385 4.48848065e-05 0)
(0.0999640034 4.40709362e-05 0)
(0.0999604224 4.32351807e-05 0)
(0.099956896 4.2380089e-05 0)
(0.0999534255 4.1507893e-05 0)
(0.0999500094 4.06202183e-05 0)
(0.0999466549 3.97192078e-05 0)
(0.0999433386 3.88031662e-05 0)
(0.0999401404 3.78835363e-05 0)
(0.0999367908 3.69172679e-05 0)
(0.0999342327 3.6084782e-05 0)
(0.0999294675 3.45943979e-05 0)
(0.0999987166 2.70875935e-05 0)
(0.0999914843 5.4404841e-05 0)
(0.0999806376 5.24636549e-05 0)
(0.0999700845 2.60081226e-05 0)
(0.0999640844 -2.16368325e-05 0)
(0.099966128 -8.85682993e-05 0)
(0.099978816 -0.000171603104 0)
(0.10000427 -0.000263010749 0)
(0.100043402 -0.00034959314 0)
(0.100094965 -0.000415178118 0)
(0.100155329 -0.000445199509 0)
(0.100219001 -0.000431040699 0)
(0.100279639 -0.000372258948 0)
(0.100331224 -0.000276178625 0)
(0.10036905 -0.000155542427 0)
(0.100390233 -2.54626469e-05 0)
(0.100394205 9.91918734e-05 0)
(0.100382328 0.000207188351 0)
(0.100357186 0.000290669311 0)
(0.100322355 0.000345340732 0)
(0.100281843 0.000370213084 0)
(0.100239651 0.000366874673 0)
(0.100199495 0.000338807479 0)
(0.100164613 0.000291099152 0)
(0.10013757 0.000230596507 0)
(0.10011999 0.000166243011 0)
(0.100112201 0.000109073569 0)
(0.100112897 7.1325593e-05 0)
(0.100118887 6.45054043e-05 0)
(0.100125248 9.68144734e-05 0)
(0.100126074 0.000170722444 0)
(0.100115527 0.000281612253 0)
(0.100088821 0.000418223363 0)
(0.100043034 0.000564981549 0)
(0.0999775801 0.000705644793 0)
(0.0998941344 0.000827189386 0)
(0.0997959906 0.000922671605 0)
(0.0996870668 0.000992102649 0)
(0.09957089 0.00104112054 0)
(0.0994498835 0.00107811846 0)
(0.099325143 0.00111106359 0)
(0.0991966749 0.00114522195 0)
(0.0990639012 0.00118243228 0)
(0.0989261795 0.00122179344 0)
(0.0987831461 0.00126106911 0)
(0.0986348264 0.00129801146 0)
(0.0984815666 0.00133110299 0)
(0.098323895 0.00135965285 0)
(0.0981624042 0.00138349686 0)
(0.0979976947 0.00140262418 0)
(0.0978303715 0.0014169407 0)
(0.0976610649 0.00142621353 0)
(0.0974904501 0.00143012992 0)
(0.0973192523 0.00142838168 0)
(0.09714824 0.00142072034 0)
(0.0969782127 0.00140697354 0)
(0.0968099885 0.00138703845 0)
(0.0966443933 0.00136087061 0)
(0.0964822519 0.00132847721 0)
(0.09632438 0.00128991524 0)
(0.0961715761 0.0012452909 0)
(0.0960246134 0.00119475754 0)
(0.0958842317 0.00113851146 0)
(0.0957511283 0.00107678644 0)
(0.0956259504 0.00100984857 0)
(0.0955092893 0.00093799227 0)
(0.095401681 0.00086153716 0)
(0.0953036122 0.000780824883 0)
(0.0952155292 0.000696214904 0)
(0.0951378454 0.000608079623 0)
(0.0950709441 0.000516799878 0)
(0.0950151773 0.000422761839 0)
(0.0949708632 0.000326358416 0)
(0.0949382719 0.000227988252 0)
(0.0949176219 0.000128067261 0)
(0.094909101 2.70622473e-05 0)
(0.0949128624 -7.45830864e-05 0)
(0.0949290575 -0.000176434659 0)
(0.0949577955 -0.00027800171 0)
(0.0949990819 -0.000378744803 0)
(0.0950528367 -0.000478092266 0)
(0.0951189073 -0.000575442747 0)
(0.0951970601 -0.000670168025 0)
(0.0952869695 -0.000761619132 0)
(0.0953882112 -0.000849134674 0)
(0.0955002585 -0.000932051932 0)
(0.0956224803 -0.00100972051 0)
(0.0957541418 -0.00108151822 0)
(0.095894408 -0.00114686863 0)
(0.0960423519 -0.00120525901 0)
(0.0961969653 -0.00125625687 0)
(0.0963571743 -0.00129952363 0)
(0.0965218565 -0.00133482469 0)
(0.0966898605 -0.00136203582 0)
(0.0968600271 -0.00138114572 0)
(0.0970312094 -0.00139225506 0)
(0.0972022933 -0.00139557195 0)
(0.0973722156 -0.00139140434 0)
(0.0975399804 -0.00138014969 0)
(0.0977046725 -0.00136228233 0)
(0.0978654682 -0.00133833939 0)
(0.0980216426 -0.00130890586 0)
(0.0981725739 -0.00127459942 0)
(0.0983177446 -0.00123605575 0)
(0.0984567409 -0.00119391467 0)
(0.0985892482 -0.00114880769 0)
(0.0987150463 -0.00110134705 0)
(0.098834002 -0.00105211658 0)
(0.0989460615 -0.00100166442 0)
(0.0990512416 -0.000950497417 0)
(0.0991496208 -0.00089907736 0)
(0.0992413305 -0.000847818679 0)
(0.0993265463 -0.000797087612 0)
(0.0994054801 -0.000747202514 0)
(0.0994783721 -0.000698435227 0)
(0.0995454841 -0.000651013263 0)
(0.0996070931 -0.00060512255 0)
(0.0996634858 -0.000560910616 0)
(0.0997149536 -0.000518490008 0)
(0.0997617888 -0.000477941758 0)
(0.0998042804 -0.000439318838 0)
(0.0998427117 -0.000402649407 0)
(0.0998773574 -0.000367939699 0)
(0.0999084826 -0.00033517664 0)
(0.099936343 -0.000304330505 0)
(0.0999611853 -0.000275357995 0)
(0.0999832472 -0.000248205698 0)
(0.100002754 -0.0002228134 0)
(0.100019918 -0.000199116473 0)
(0.100034933 -0.000177046987 0)
(0.100047976 -0.000156534008 0)
(0.100059211 -0.000137503829 0)
(0.100068788 -0.000119880614 0)
(0.100076849 -0.000103587396 0)
(0.100083525 -8.85471144e-05 0)
(0.100088937 -7.46834442e-05 0)
(0.100093202 -6.19214323e-05 0)
(0.100096427 -5.01881458e-05 0)
(0.100098713 -3.94134467e-05 0)
(0.100100155 -2.95307832e-05 0)
(0.100100839 -2.04780498e-05 0)
(0.10010084 -1.21984347e-05 0)
(0.100100209 -4.64274962e-06 0)
(0.100098955 2.24198425e-06 0)
(0.100097202 8.44879155e-06 0)
(0.100095111 1.4043106e-05 0)
(0.100092728 1.90810816e-05 0)
(0.100090077 2.3623107e-05 0)
(0.100087169 2.77195209e-05 0)
(0.100084023 3.14085321e-05 0)
(0.100080667 3.4721192e-05 0)
(0.100077129 3.76811115e-05 0)
(0.100073431 4.03079149e-05 0)
(0.100069598 4.26214744e-05 0)
(0.100065653 4.46426246e-05 0)
(0.100061613 4.63919191e-05 0)