/*--------------------------------*- C++ -*----------------------------------*\
| =========                 |                                                 |
| \\      /  F ield         | OpenFOAM: The Open Source CFD Toolbox           |
|  \\    /   O peration     | Version:  v2012                                 |
|   \\  /    A nd           | Website:  www.openfoam.com                      |
|    \\/     M anipulation  |                                                 |
\*---------------------------------------------------------------------------*/
FoamFile
{
    version     2.0;
    format      ascii;
    class       volScalarField;
    location    "2.09";
    object      p;
}
// * * * * * * * * * * * * * * * * * * * * * * * * * * * * * * * * * * * * * //

dimensions      [0 2 -2 0 0 0 0];


internalField   nonuniform List<scalar> 
28416
(
-0.00110698578
-0.00110613158
-0.00110422034
-0.00110122944
-0.00109749879
-0.00109272323
-0.00108690455
-0.00107999886
-0.00107196788
-0.00106279582
-0.00105248361
-0.00104104749
-0.00102852009
-0.00101495808
-0.00100045823
-0.000985139981
-0.000969171026
-0.000952396229
-0.000934795819
-0.000916394743
-0.000897240475
-0.000877388448
-0.000856890307
-0.000835805785
-0.000814211621
-0.000792191728
-0.000769821192
-0.000747161102
-0.000724266358
-0.000701193581
-0.000678004389
-0.000654770348
-0.00063157388
-0.000608504519
-0.000585655664
-0.000563121645
-0.000540994573
-0.000519362151
-0.000498306951
-0.000477906807
-0.000458235785
-0.000439365172
-0.000421363948
-0.000404298557
-0.000388232108
-0.000373223339
-0.000359325623
-0.000346586203
-0.000335045695
-0.000324737758
-0.000315688846
-0.000307917974
-0.000301436529
-0.000296248138
-0.000292348618
-0.000289726016
-0.000288360749
-0.000288225843
-0.000289287262
-0.000291504318
-0.000294830172
-0.000299212406
-0.000304593677
-0.000310912435
-0.000318103695
-0.000326099844
-0.00033483147
-0.000344228172
-0.000354219287
-0.000364734494
-0.000375704222
-0.000387059759
-0.000398732722
-0.000410652693
-0.000422744452
-0.000434957856
-0.000447289361
-0.000459656446
-0.000472059675
-0.000484431694
-0.000496720812
-0.000508903127
-0.000520954365
-0.000532848893
-0.000544566358
-0.000556091359
-0.000567411344
-0.000578516014
-0.00058939721
-0.000600048481
-0.000610464496
-0.000620640542
-0.000630572118
-0.000640254563
-0.000649682729
-0.000658850722
-0.000667751704
-0.000676377787
-0.000684719968
-0.000692768145
-0.000700511192
-0.000707937076
-0.000715033022
-0.00072178571
-0.000728181487
-0.000734206596
-0.000739847401
-0.000745090608
-0.000749923469
-0.000754333975
-0.000758311015
-0.000761844516
-0.000764925548
-0.000767546407
-0.000769700667
-0.000771383202
-0.000772590194
-0.000773319118
-0.000773568702
-0.000773338872
-0.000772630685
-0.000771446251
-0.000769788653
-0.00076766185
-0.000765070576
-0.000762020229
-0.000758516745
-0.000754566446
-0.000750175864
-0.000745351449
-0.000740098981
-0.000734423903
-0.000728333653
-0.000721837549
-0.000714946739
-0.000707674076
-0.000700033858
-0.000692041479
-0.000683712992
-0.000675064489
-0.000666111406
-0.000656867939
-0.000647344972
-0.00063756817
-0.000627569475
-0.000617319186
-0.000606819226
-0.000596074472
-0.000585088892
-0.000573866824
-0.000562413485
-0.000550735126
-0.000538838912
-0.000526732721
-0.000514424737
-0.000501923132
-0.000489235903
-0.000476370807
-0.000463335356
-0.000450136817
-0.000436782226
-0.000423278399
-0.00040963194
-0.000395849258
-0.00038193658
-0.00036789997
-0.000353745342
-0.000339478473
-0.000325105016
-0.000310630516
-0.000296060404
-0.000281400012
-0.000266654577
-0.000251829239
-0.000236929046
-0.000221958959
-0.000206923863
-0.000191828583
-0.000176677884
-0.00016147647
-0.00014622898
-0.00013094002
-0.00011561415
-0.000100255957
-8.48698692e-05
-6.94609322e-05
-5.40324455e-05
-3.85945434e-05
-2.31373531e-05
-7.73558051e-06
-0.00111019578
-0.00110939091
-0.00110741382
-0.00110434289
-0.00110020008
-0.00109512792
-0.00108901779
-0.00108184243
-0.00107359328
-0.00106426827
-0.00105387374
-0.00104242809
-0.00102996238
-0.00101651934
-0.00100214548
-0.00098685009
-0.000970831423
-0.000953938218
-0.000936238403
-0.000917781121
-0.000898599784
-0.0008787409
-0.000858264711
-0.000837233088
-0.000815700968
-0.000793724703
-0.00077136691
-0.000748695206
-0.000725779168
-0.000702689674
-0.000679501288
-0.00065629114
-0.000633138665
-0.000610126832
-0.000587341482
-0.000564869642
-0.000542797809
-0.000521210638
-0.000500190247
-0.000479815983
-0.000460164378
-0.000441309093
-0.000423320699
-0.000406266256
-0.000390208739
-0.000375206399
-0.000361312111
-0.00034857279
-0.00033702887
-0.000326713892
-0.000317654159
-0.000309868468
-0.000303367918
-0.000298155798
-0.000294227561
-0.000291570883
-0.000290165823
-0.000289985072
-0.000290994297
-0.000293152573
-0.000296412897
-0.00030072277
-0.000306024846
-0.000312257627
-0.000319356193
-0.000327252931
-0.000335878267
-0.000345161369
-0.000355030836
-0.000365415379
-0.000376244357
-0.000387448319
-0.000398959771
-0.000410711912
-0.000422650504
-0.000434728758
-0.000446868793
-0.000459061033
-0.000471242684
-0.000483384688
-0.000495449515
-0.000507404649
-0.000519226036
-0.000530892675
-0.00054238696
-0.000553695486
-0.000564808178
-0.000575717446
-0.000586417759
-0.000596905159
-0.000607176659
-0.000617229663
-0.000627061459
-0.000636668782
-0.000646047436
-0.000655191996
-0.000664095599
-0.000672749837
-0.000681144729
-0.000689268771
-0.000697109072
-0.000704651535
-0.000711881094
-0.00071878198
-0.000725338011
-0.000731532881
-0.00073735045
-0.000742775016
-0.000747791565
-0.000752385989
-0.000756545275
-0.000760257659
-0.000763512734
-0.000766301543
-0.000768616618
-0.000770452006
-0.000771803256
-0.000772667384
-0.000773042822
-0.000772929352
-0.000772328015
-0.000771241027
-0.000769671672
-0.000767624196
-0.000765103692
-0.000762115993
-0.000758667555
-0.000754765335
-0.000750416644
-0.000745628984
-0.000740409941
-0.000734767466
-0.00072871056
-0.000722249475
-0.000715395722
-0.000708161957
-0.000700561762
-0.000692609356
-0.000684319218
-0.000675705674
-0.000666782686
-0.000657564569
-0.000648070454
-0.000638316099
-0.000628279241
-0.000617984293
-0.000607437162
-0.000596647467
-0.000585620603
-0.000574361033
-0.000562874618
-0.000551167834
-0.000539247375
-0.000527120265
-0.000514793818
-0.000502275496
-0.000489572792
-0.00047669313
-0.000463643806
-0.000450431936
-0.00043706445
-0.000423548087
-0.000409889398
-0.000396094769
-0.000382170416
-0.000368122407
-0.000353956665
-0.000339678974
-0.000325294989
-0.00031081025
-0.000296230182
-0.000281560099
-0.000266805225
-0.000251970688
-0.000237061535
-0.000222082713
-0.000207039089
-0.000191935471
-0.000176776614
-0.000161567219
-0.000146311935
-0.000131015368
-0.000115682079
-0.000100316649
-8.4923474e-05
-6.95075145e-05
-5.40717898e-05
-3.86261557e-05
-2.3159209e-05
-7.74582726e-06
-0.00111426409
-0.00111341927
-0.00111141997
-0.00110832444
-0.00110427137
-0.001099166
-0.00109300049
-0.00108575687
-0.00107743576
-0.00106803775
-0.00105756823
-0.00104604362
-0.00103349247
-0.00101995372
-0.00100547297
-0.000990116726
-0.000973840557
-0.000956800722
-0.000938969429
-0.000920356357
-0.000901015459
-0.000881000192
-0.000860360898
-0.000839147444
-0.000817416188
-0.000795230327
-0.000772657854
-0.000749766301
-0.000726621536
-0.000703292107
-0.000679850039
-0.000656373641
-0.000632947471
-0.000609658869
-0.000586596646
-0.000563850272
-0.000541508294
-0.000519656917
-0.000498379376
-0.000477755918
-0.000457864038
-0.000438778634
-0.00042057187
-0.000403312693
-0.000387066089
-0.000371892256
-0.000357845811
-0.00034497513
-0.000333321834
-0.000322920397
-0.000313797832
-0.00030597342
-0.000299458506
-0.000294256369
-0.000290362181
-0.000287763067
-0.000286438263
-0.000286359377
-0.000287490735
-0.000289789822
-0.000293207802
-0.000297690113
-0.000303177135
-0.000309604919
-0.000316905963
-0.000325010057
-0.000333845154
-0.000343338228
-0.000353416032
-0.00036400573
-0.000375035435
-0.000386434725
-0.000398135228
-0.00041007173
-0.000422182356
-0.000434405325
-0.000446709296
-0.000459027494
-0.000471327259
-0.000483568143
-0.000495712523
-0.000507730844
-0.000519600074
-0.000531300604
-0.000542816575
-0.000554136502
-0.000565252451
-0.000576159098
-0.000586853161
-0.000597332855
-0.000607597242
-0.000617645594
-0.000627476834
-0.000637089055
-0.000646479114
-0.000655642316
-0.000664572201
-0.000673260443
-0.000681696839
-0.000689869389
-0.000697764471
-0.000705367069
-0.000712661054
-0.000719629503
-0.000726255033
-0.000732520139
-0.000738407519
-0.000743900378
-0.000748982704
-0.000753639508
-0.000757857025
-0.000761622875
-0.000764926178
-0.000767757632
-0.000770109554
-0.000771975885
-0.000773352174
-0.000774235531
-0.000774624563
-0.000774519289
-0.000773921043
-0.000772832366
-0.000771256906
-0.000769199299
-0.000766665055
-0.000763660433
-0.000760192292
-0.00075626795
-0.000751895084
-0.00074708171
-0.000741836234
-0.000736167624
-0.000730085647
-0.000723600981
-0.000716725219
-0.000709470747
-0.000701850585
-0.000693878175
-0.000685567167
-0.000676931245
-0.000667983954
-0.000658738197
-0.000649202743
-0.000639372245
-0.000629294666
-0.000618964651
-0.00060838959
-0.00059757034
-0.000586510523
-0.000575216275
-0.000563694524
-0.000551952135
-0.00053999632
-0.000527834728
-0.000515475085
-0.00050292506
-0.000490192192
-0.000477283829
-0.000464207119
-0.000450968997
-0.000437576261
-0.000424035553
-0.000410353346
-0.000396535959
-0.000382589549
-0.000368520128
-0.000354333567
-0.000340035605
-0.00032563186
-0.000311127841
-0.000296528946
-0.00028184047
-0.000267067615
-0.000252215479
-0.000237289069
-0.000222293332
-0.000207233143
-0.000192113296
-0.00017693852
-0.000161713489
-0.000146442822
-0.000131131097
-0.000115782839
-0.00010040258
-8.49946577e-05
-6.95639634e-05
-5.41135266e-05
-3.86532487e-05
-2.31727802e-05
-7.74767737e-06
-0.00111973423
-0.00111886587
-0.0011168034
-0.0011135964
-0.0011092929
-0.00110401501
-0.00109766987
-0.00109025331
-0.00108177065
-0.00107223103
-0.00106164653
-0.00105003493
-0.00103742116
-0.00102383585
-0.00100931877
-0.000993917521
-0.000977610511
-0.000960438743
-0.000942459872
-0.000923719131
-0.000904245197
-0.000884079594
-0.000863273572
-0.000841883483
-0.00081996962
-0.000797594808
-0.000774823878
-0.000751724924
-0.000728369471
-0.000704830291
-0.000681184799
-0.000657512779
-0.000633895286
-0.000610417243
-0.00058716664
-0.000564232302
-0.00054170225
-0.000519662679
-0.000498197485
-0.000477388226
-0.0004573142
-0.000438052353
-0.000419676865
-0.000402258482
-0.000385863728
-0.000370554122
-0.000356385474
-0.000343407267
-0.000331662134
-0.000321185399
-0.000312004707
-0.000304139715
-0.000297601871
-0.000292394278
-0.000288511661
-0.000285940427
-0.000284658837
-0.000284637287
-0.000285838685
-0.000288218935
-0.000291727508
-0.000296308087
-0.000301899297
-0.000308435472
-0.000315847437
-0.000324063243
-0.000333008852
-0.000342608822
-0.000352787056
-0.000363467673
-0.000374575935
-0.000386039124
-0.000397787385
-0.000409754335
-0.000421877937
-0.000434102192
-0.000446374992
-0.000458651995
-0.000470887257
-0.000483043402
-0.000495088971
-0.000506996792
-0.000518744768
-0.000530315654
-0.000541696597
-0.000552878944
-0.000563857702
-0.000574630776
-0.000585198242
-0.000595561634
-0.000605723187
-0.000615685089
-0.000625448811
-0.000635014513
-0.000644380574
-0.000653543228
-0.00066249633
-0.00067123127
-0.000679736994
-0.000688000147
-0.000696005312
-0.000703735328
-0.000711171661
-0.000718294808
-0.000725084723
-0.000731521232
-0.00073758443
-0.000743255049
-0.000748514776
-0.000753346534
-0.000757734699
-0.000761665276
-0.000765126017
-0.000768106498
-0.000770598155
-0.000772594275
-0.000774089962
-0.000775082066
-0.000775569096
-0.00077555112
-0.000775029648
-0.000774007513
-0.000772488731
-0.000770478359
-0.00076798236
-0.000765007493
-0.00076156125
-0.000757651812
-0.000753287975
-0.000748479043
-0.000743234736
-0.000737565184
-0.000731480984
-0.000724993259
-0.000718113684
-0.00071085443
-0.000703228078
-0.000695247466
-0.000686925514
-0.000678275024
-0.000669308627
-0.000660039467
-0.000650485353
-0.000640679536
-0.000630583259
-0.000620218934
-0.000609594695
-0.000598723293
-0.000587614381
-0.000576275286
-0.000564712046
-0.000552930984
-0.000540938907
-0.000528742997
-0.000516350404
-0.000503768374
-0.000491004147
-0.000478064896
-0.000464957711
-0.000451689595
-0.00043826737
-0.00042469768
-0.000410987011
-0.00039714169
-0.000383167887
-0.000369071626
-0.000354858791
-0.000340535126
-0.000326106244
-0.000311577637
-0.000296954679
-0.000282242635
-0.000267446672
-0.00025257186
-0.000237623185
-0.000222605565
-0.000207523836
-0.000192382761
-0.00017718704
-0.000161941315
-0.000146650171
-0.000131318149
-0.000115949735
-0.000100549422
-8.51214939e-05
-6.96707924e-05
-5.42001437e-05
-3.87192541e-05
-2.32160094e-05
-7.76600571e-06
-0.00112661595
-0.00112574628
-0.00112366693
-0.00112043129
-0.00111617863
-0.00111081899
-0.00110438573
-0.00109686621
-0.00108827076
-0.0010786098
-0.00106789354
-0.00105613851
-0.00104336823
-0.00102961109
-0.00101489744
-0.000999254604
-0.000982691442
-0.000965277012
-0.000947045825
-0.00092803522
-0.000908287282
-0.000887846938
-0.000866762612
-0.000845085944
-0.000822871843
-0.00080017868
-0.000777068784
-0.00075360837
-0.000729868005
-0.000705925812
-0.000681861957
-0.0006577604
-0.000633709242
-0.000609797072
-0.00058611284
-0.000562746004
-0.000539785646
-0.000517319614
-0.000495434142
-0.000474213765
-0.000453741214
-0.000434097069
-0.000415359117
-0.000397601531
-0.000380894021
-0.000365301023
-0.000350880978
-0.000337685693
-0.000325759786
-0.000315140208
-0.000305855837
-0.000297927149
-0.000291365961
-0.000286175285
-0.000282349288
-0.000279873364
-0.000278724321
-0.000278870678
-0.000280273067
-0.000282884733
-0.000286652111
-0.000291515469
-0.000297409613
-0.000304264645
-0.0003120068
-0.00032055941
-0.000329843986
-0.000339781292
-0.000350292274
-0.000361298753
-0.000372723953
-0.000384493039
-0.000396533723
-0.000408776885
-0.000421157935
-0.000433617869
-0.000446101921
-0.000458561242
-0.000470952909
-0.000483238274
-0.000495384022
-0.000507363669
-0.000519157228
-0.000530750364
-0.000542133714
-0.000553302423
-0.000564255525
-0.000574995114
-0.000585525468
-0.000595852189
-0.000605981338
-0.00061591858
-0.00062566841
-0.000635233472
-0.000644614023
-0.00065380753
-0.000662808426
-0.000671608036
-0.000680194644
-0.000688553697
-0.00069666813
-0.00070451878
-0.000712084853
-0.000719344436
-0.000726275016
-0.00073285398
-0.00073905909
-0.00074486891
-0.000750263168
-0.00075522307
-0.000759731545
-0.000763773423
-0.000767335556
-0.000770406883
-0.000772978442
-0.000775043341
-0.000776596693
-0.000777635532
-0.000778158698
-0.000778166708
-0.000777661613
-0.000776646861
-0.000775127157
-0.000773108355
-0.000770597349
-0.000767601924
-0.000764130564
-0.00076019223
-0.000755796231
-0.000750952212
-0.000745670237
-0.000739960881
-0.000733835263
-0.000727305041
-0.000720382348
-0.000713079707
-0.000705409927
-0.000697386008
-0.000689021044
-0.000680328165
-0.000671320375
-0.000662009627
-0.000652402502
-0.000642485512
-0.000632311624
-0.000621880557
-0.000611199227
-0.000600271593
-0.000589103794
-0.000577703186
-0.000566078029
-0.000554236581
-0.000542186407
-0.000529934719
-0.000517488821
-0.000504855889
-0.000492043008
-0.000479057188
-0.000465905333
-0.000452594233
-0.000439130548
-0.0004255208
-0.000411771361
-0.000397888453
-0.000383878147
-0.000369746375
-0.000355498937
-0.000341141505
-0.000326679631
-0.000312118762
-0.000297464236
-0.000282721287
-0.000267895058
-0.000252990592
-0.000238012847
-0.000222966702
-0.000207856952
-0.000192688325
-0.000177465481
-0.000162193024
-0.000146875495
-0.000131517393
-0.00011612316
-0.000100697241
-8.52438803e-05
-6.97678728e-05
-5.42721182e-05
-3.8766466e-05
-2.32403585e-05
-7.77026637e-06
-0.00113491584
-0.00113401999
-0.00113188447
-0.00112856201
-0.0011241483
-0.00111869178
-0.00111213324
-0.00110447659
-0.00109573621
-0.00108592604
-0.0010750593
-0.00106315241
-0.00105022638
-0.00103630515
-0.00102141291
-0.0010055757
-0.000988834604
-0.000971225382
-0.000952772853
-0.000933510362
-0.000913482832
-0.000892736935
-0.00087132104
-0.000849287161
-0.000826691378
-0.000803594554
-0.000780062774
-0.000756167857
-0.000731986551
-0.000707594641
-0.000683073861
-0.000658508688
-0.000633985473
-0.000609594981
-0.000585430222
-0.000561584148
-0.000538148621
-0.000515213914
-0.000492868573
-0.000471199562
-0.000450292353
-0.000430230649
-0.000411095681
-0.000392965224
-0.00037591256
-0.000360005514
-0.000345305645
-0.000331867559
-0.000319738308
-0.000308956875
-0.000299553702
-0.000291550319
-0.000284959059
-0.000279782893
-0.000276015371
-0.000273640688
-0.000272633869
-0.00027296108
-0.000274580059
-0.000277440662
-0.000281485534
-0.000286650891
-0.000292867403
-0.000300061165
-0.000308154663
-0.000317067644
-0.000326717845
-0.000337021665
-0.000347894942
-0.000359253921
-0.00037101636
-0.00038310262
-0.000395436632
-0.000407946938
-0.000420566936
-0.000433233743
-0.000445888859
-0.000458483234
-0.000470975154
-0.000483328285
-0.000495511594
-0.000507500617
-0.000519277593
-0.000530830865
-0.000542154425
-0.00055324745
-0.000564113549
-0.000574759793
-0.000585195675
-0.00059543203
-0.000605479958
-0.000615349771
-0.000625050029
-0.000634586718
-0.000643962595
-0.000653176728
-0.000662224233
-0.000671096224
-0.000679779952
-0.000688259105
-0.000696514253
-0.0007045234
-0.000712262589
-0.000719706555
-0.000726829369
-0.000733605057
-0.00074000817
-0.000746014288
-0.000751600448
-0.000756745491
-0.000761430331
-0.000765638137
-0.000769354444
-0.000772567207
-0.000775266791
-0.000777445918
-0.000779099576
-0.000780224897
-0.000780821007
-0.000780888875
-0.000780431146
-0.000779451971
-0.000777956826
-0.000775952296
-0.000773445867
-0.000770445767
-0.000766960911
-0.000763000931
-0.00075857618
-0.000753697651
-0.000748376807
-0.000742625424
-0.000736455497
-0.000729879213
-0.000722908954
-0.000715557271
-0.000707836813
-0.000699760216
-0.000691339949
-0.000682588107
-0.000673516139
-0.000664135086
-0.000654458613
-0.000644525444
-0.000634308673
-0.000623823213
-0.000613080198
-0.000602090586
-0.000590862485
-0.000579403182
-0.000567720374
-0.000555821567
-0.000543714415
-0.000531406481
-0.000518905187
-0.000506217824
-0.000493351575
-0.000480313496
-0.000467110513
-0.000453749411
-0.000440236833
-0.000426579273
-0.000412783081
-0.000398854464
-0.000384799487
-0.000370624078
-0.000356334025
-0.000341934981
-0.000327432469
-0.00031283189
-0.000298138527
-0.000283357555
-0.000268494054
-0.000253553008
-0.000238539318
-0.000223457809
-0.000208313232
-0.000193110266
-0.00017785353
-0.000162547584
-0.000147196929
-0.000131806018
-0.000116379247
-0.000100921016
-8.54355124e-05
-6.99274766e-05
-5.43996355e-05
-3.88616393e-05
-2.33012992e-05
-7.79449951e-06
-0.00114467
-0.00114376016
-0.00114158999
-0.00113821323
-0.00113374124
-0.00112817565
-0.00112149928
-0.00111371002
-0.00110482181
-0.00109484821
-0.00108380163
-0.00107169812
-0.00105855841
-0.00104440607
-0.00102926787
-0.00101317306
-0.000996140939
-0.000978201283
-0.00095939564
-0.000939772248
-0.000919370497
-0.000898231694
-0.000876403382
-0.000853937529
-0.000830890059
-0.00080732085
-0.000783293972
-0.000758877424
-0.000734142648
-0.000709172444
-0.000684052686
-0.00065887578
-0.000633735878
-0.000608726248
-0.000583940932
-0.000559474577
-0.000535421295
-0.000511874109
-0.000488924981
-0.000466665022
-0.000445184468
-0.00042457216
-0.000404914545
-0.000386294449
-0.000368789894
-0.000352473087
-0.000337409584
-0.000323657585
-0.000311267283
-0.000300280275
-0.000290729034
-0.000282636474
-0.000276015624
-0.000270869422
-0.000267190647
-0.000264961992
-0.000264156286
-0.000264736861
-0.000266658049
-0.000269865809
-0.000274298442
-0.000279887384
-0.000286558027
-0.000294230572
-0.000302820943
-0.000312241831
-0.000322403888
-0.000333216971
-0.000344591286
-0.000356438356
-0.000368671817
-0.00038120812
-0.000393967213
-0.000406873028
-0.000419853787
-0.000432844219
-0.000445789247
-0.000458638329
-0.000471343981
-0.00048386622
-0.000496175468
-0.000508249791
-0.000520074336
-0.000531641329
-0.000542949594
-0.000554003783
-0.000564813423
-0.000575391839
-0.000585754935
-0.000595919893
-0.000605903863
-0.000615722691
-0.000625389761
-0.000634914991
-0.000644304065
-0.00065355789
-0.000662672318
-0.000671638136
-0.000680441283
-0.000689063281
-0.000697481833
-0.000705671544
-0.00071360471
-0.000721252134
-0.000728583939
-0.000735570318
-0.000742182223
-0.000748391955
-0.000754173654
-0.000759503685
-0.000764360925
-0.000768726943
-0.0007725861
-0.000775925575
-0.000778735316
-0.000781007944
-0.000782738619
-0.000783924866
-0.000784566388
-0.000784664864
-0.00078422374
-0.000783248018
-0.000781744074
-0.000779719518
-0.00077718308
-0.000774144487
-0.000770614268
-0.000766603509
-0.000762123642
-0.000757186313
-0.000751803385
-0.000745986991
-0.000739749566
-0.00073310381
-0.000726062616
-0.000718638976
-0.000710845922
-0.000702696459
-0.000694203498
-0.000685379855
-0.000676238346
-0.000666791799
-0.000657052151
-0.000647016237
-0.000636710164
-0.000626139949
-0.000615313904
-0.000604240746
-0.0005929297
-0.000581389507
-0.000569627974
-0.000557652822
-0.000545471765
-0.000533092282
-0.000520521691
-0.000507767208
-0.000494835935
-0.000481734839
-0.000468470756
-0.000455050388
-0.000441480288
-0.00042776686
-0.000413916358
-0.000399934884
-0.000385828399
-0.000371602726
-0.00035726356
-0.000342816474
-0.000328266926
-0.000313620271
-0.000298881753
-0.00028405652
-0.00026914962
-0.000254166006
-0.000239110543
-0.000223988011
-0.000208803112
-0.000193560473
-0.000178264658
-0.000162920169
-0.000147531449
-0.000132102894
-0.000116638844
-0.000101143639
-8.56214139e-05
-7.00768566e-05
-5.45127268e-05
-3.89387713e-05
-2.33440327e-05
-7.80540457e-06
-0.00115590626
-0.00115497814
-0.00115276379
-0.00114931814
-0.00114475599
-0.0011390862
-0.00113228357
-0.00112434856
-0.00111529766
-0.00110514601
-0.00109390666
-0.00108159541
-0.001068232
-0.00105383823
-0.00103843551
-0.00102204561
-0.00100470101
-0.000986436391
-0.000967286304
-0.000947281041
-0.000926462271
-0.000904876558
-0.000882571411
-0.000859596856
-0.000836006638
-0.000811859419
-0.000787220209
-0.000762162383
-0.000736768246
-0.000711120215
-0.000685309053
-0.000659424224
-0.000633560439
-0.000607817382
-0.00058229479
-0.00055709158
-0.000532305569
-0.000508033361
-0.00048437078
-0.000461413352
-0.000439256348
-0.00041799416
-0.000397719086
-0.000378519857
-0.000360480225
-0.000343677798
-0.000328183107
-0.000314058823
-0.000301359043
-0.000290128625
-0.000280402583
-0.000272205574
-0.00026555152
-0.000260443367
-0.000256873012
-0.000254821373
-0.000254258612
-0.000255144521
-0.000257429036
-0.000261052906
-0.000265948496
-0.000272040714
-0.000279248071
-0.00028748383
-0.000296657199
-0.000306674467
-0.000317440044
-0.000328857426
-0.000340830171
-0.000353262937
-0.000366062531
-0.000379138907
-0.000392406096
-0.000405783166
-0.000419195421
-0.000432574792
-0.000445858287
-0.000458991752
-0.000471929091
-0.00048463311
-0.000497074643
-0.000509233118
-0.000521096578
-0.000532661417
-0.000543931759
-0.000554918566
-0.00056563855
-0.000576112843
-0.000586365485
-0.0005964218
-0.000606306754
-0.000616043362
-0.00062565124
-0.000635145366
-0.000644535136
-0.000653823738
-0.000663007853
-0.00067207771
-0.000681017434
-0.000689805651
-0.000698416306
-0.000706819615
-0.000714983084
-0.000722872558
-0.000730453225
-0.000737690543
-0.000744551061
-0.000751003114
-0.000757017383
-0.000762567317
-0.00076762943
-0.000772183472
-0.000776212499
-0.000779702855
-0.00078264408
-0.000785028758
-0.000786852331
-0.000788112877
-0.00078881088
-0.000788948986
-0.000788531768
-0.000787565492
-0.000786057878
-0.000784017843
-0.00078145525
-0.000778380701
-0.000774805414
-0.000770741164
-0.000766200256
-0.000761195459
-0.000755739897
-0.000749846909
-0.000743529932
-0.000736802418
-0.000729677806
-0.000722169494
-0.000714290798
-0.000706054886
-0.000697474728
-0.000688563084
-0.000679332453
-0.000669794757
-0.000659959475
-0.000649837376
-0.000639441664
-0.000628782743
-0.000617870156
-0.000606712512
-0.000595317909
-0.000583694467
-0.000571850441
-0.000559793955
-0.000547532878
-0.000535074872
-0.00052242742
-0.000509597821
-0.000496593203
-0.000483420528
-0.000470086601
-0.000456598076
-0.000442961458
-0.000429183101
-0.000415269218
-0.000401225881
-0.000387059023
-0.000372774441
-0.000358377798
-0.000343874621
-0.000329270308
-0.000314570138
-0.000299779276
-0.000284902776
-0.000269945603
-0.000254912629
-0.000239808642
-0.000224638357
-0.000209406414
-0.000194117384
-0.000178775779
-0.000163386048
-0.000147952584
-0.00013247973
-0.000116971771
-0.000101432998
-8.58674877e-05
-7.02798779e-05
-5.46728173e-05
-3.90559162e-05
-2.34171445e-05
-7.83258754e-06
-0.00116865184
-0.00116770515
-0.00116544736
-0.00116193445
-0.00115728312
-0.00115150182
-0.00114456672
-0.00113647848
-0.00112725342
-0.00111690623
-0.0011054491
-0.00109289683
-0.00107926812
-0.00106458368
-0.00104886617
-0.00103214119
-0.00101443447
-0.000995774644
-0.000976193695
-0.000955731556
-0.000934427658
-0.000912323
-0.000889462941
-0.000865897558
-0.000841682194
-0.000816878258
-0.000791553344
-0.000765779267
-0.000739629314
-0.000713196088
-0.000686567472
-0.000659845508
-0.000633134039
-0.000606534682
-0.000580149493
-0.000554081335
-0.000528432389
-0.000503303811
-0.00047879649
-0.000455011732
-0.0004320513
-0.000410016608
-0.000389007231
-0.000369119122
-0.000350442971
-0.000333062896
-0.000317055421
-0.000302488638
-0.000289421409
-0.000277902604
-0.000267970391
-0.000259651626
-0.00025296141
-0.000247902801
-0.000244466704
-0.000242631949
-0.000242365541
-0.000243623107
-0.000246349515
-0.000250479657
-0.000255939363
-0.000262646431
-0.000270511713
-0.000279440278
-0.000289332607
-0.000300085868
-0.000311595236
-0.000323755227
-0.000336460957
-0.000349609277
-0.000363099789
-0.000376835792
-0.000390725223
-0.000404681584
-0.000418624647
-0.000432480762
-0.000446184011
-0.000459677557
-0.000472914595
-0.000485856656
-0.000498474782
-0.00051075047
-0.000522675442
-0.000534251101
-0.000545487893
-0.000556404384
-0.00056702597
-0.000577383253
-0.000587510181
-0.000597442037
-0.000607213367
-0.000616855976
-0.000626397095
-0.000635857846
-0.000645252068
-0.000654585574
-0.000663855851
-0.000673052195
-0.000682156237
-0.000691142795
-0.000699980979
-0.000708635442
-0.000717067715
-0.00072523753
-0.00073310408
-0.000740627154
-0.000747768117
-0.000754490722
-0.000760761737
-0.000766551401
-0.000771833713
-0.000776586583
-0.000780791847
-0.000784435196
-0.00078750601
-0.000789997138
-0.000791904639
-0.00079322749
-0.000793967278
-0.000794127896
-0.000793715234
-0.000792736885
-0.000791201897
-0.000789120562
-0.000786504242
-0.000783365194
-0.000779716367
-0.000775571192
-0.000770943395
-0.000765846862
-0.000760295565
-0.000754303531
-0.00074788482
-0.00074105349
-0.000733823545
-0.000726208858
-0.000718223119
-0.000709879798
-0.000701192082
-0.000692172745
-0.000682834014
-0.00067318768
-0.00066324831
-0.000653023535
-0.000642524726
-0.00063176241
-0.000620746118
-0.000609485266
-0.000597989257
-0.000586266901
-0.000574326448
-0.00056217588
-0.000549823017
-0.000537275502
-0.000524540784
-0.000511626137
-0.000498538667
-0.000485285307
-0.000471872822
-0.00045830782
-0.000444596743
-0.000430745876
-0.000416761346
-0.00040264913
-0.000388415058
-0.000374064824
-0.000359603995
-0.00034503801
-0.0003303722
-0.000315611788
-0.000300761891
-0.000285827523
-0.000270813607
-0.000255724968
-0.000240566339
-0.000225342376
-0.000210057655
-0.000194716675
-0.000179323877
-0.000163883639
-0.000148400282
-0.00013287808
-0.00011732125
-0.000101734014
-8.61203873e-05
-7.04849392e-05
-5.48302967e-05
-3.9166066e-05
-2.3480922e-05
-7.85163863e-06
-0.00118293712
-0.00118197124
-0.001179668
-0.00117608424
-0.0011713392
-0.00116544175
-0.00115836705
-0.0011501156
-0.00114070406
-0.00113014714
-0.00111845666
-0.00110564693
-0.001091736
-0.00107674377
-0.00106069065
-0.00104359816
-0.0010254905
-0.00100639622
-0.000986348751
-0.000965382497
-0.000943535032
-0.0009208481
-0.000897367204
-0.000873141695
-0.000848225208
-0.000822675979
-0.000796559769
-0.000769956405
-0.000742936009
-0.000715601699
-0.000688037235
-0.000660361436
-0.00063267596
-0.000605087518
-0.000577705685
-0.000550638761
-0.00052399348
-0.000497875937
-0.000472392601
-0.000447651193
-0.000423760824
-0.000400831031
-0.000378969938
-0.000358282109
-0.000338866587
-0.000320815374
-0.000304212285
-0.000289132
-0.000275639179
-0.000263787577
-0.000253619209
-0.000245163639
-0.000238437442
-0.000233443859
-0.000230172665
-0.000228600239
-0.000228689846
-0.000230392121
-0.000233645752
-0.000238378351
-0.000244507494
-0.000251941924
-0.000260582868
-0.000270325457
-0.000281060161
-0.000292674225
-0.000305053063
-0.000318081582
-0.000331645451
-0.000345632326
-0.000359933021
-0.000374442594
-0.000389061324
-0.000403695501
-0.000418257983
-0.000432669684
-0.000446862471
-0.00046077627
-0.000474359705
-0.000487571978
-0.00050038561
-0.000512784702
-0.000524764807
-0.000536333034
-0.000547507448
-0.000558315944
-0.000568794683
-0.000578986114
-0.000588936668
-0.000598694203
-0.000608305378
-0.000617813087
-0.000627254129
-0.000636657254
-0.000646041714
-0.00065541637
-0.000664779398
-0.000674118565
-0.000683412014
-0.000692629451
-0.000701733646
-0.000710682093
-0.000719428745
-0.0007279257
-0.000736124775
-0.000743978888
-0.000751443224
-0.00075847617
-0.000765040006
-0.000771101374
-0.000776631553
-0.000781606548
-0.00078600704
-0.000789818219
-0.000793029533
-0.000795634367
-0.000797629699
-0.000799015719
-0.000799795458
-0.000799974423
-0.000799560255
-0.00079856241
-0.00079699184
-0.00079486069
-0.000792182012
-0.000788969529
-0.00078523747
-0.000781000446
-0.000776273362
-0.000771071307
-0.000765409457
-0.000759302976
-0.000752766922
-0.000745816178