/*--------------------------------*- C++ -*----------------------------------*\
| =========                 |                                                 |
| \\      /  F ield         | OpenFOAM: The Open Source CFD Toolbox           |
|  \\    /   O peration     | Version:  v2012                                 |
|   \\  /    A nd           | Website:  www.openfoam.com                      |
|    \\/     M anipulation  |                                                 |
\*---------------------------------------------------------------------------*/
FoamFile
{
    version     2.0;
    format      ascii;
    class       surfaceScalarField;
    location    "2.09";
    object      phi;
}
// * * * * * * * * * * * * * * * * * * * * * * * * * * * * * * * * * * * * * //

dimensions      [0 3 -1 0 0 0 0];
oriented        oriented;


internalField   nonuniform List<scalar> 
56481
(
6.66638007e-07
5.64790172e-11
6.66587023e-07
9.66212805e-11
6.66540807e-07
6.36807669e-11
6.6651165e-07
-2.96156131e-11
6.66516371e-07
-1.74152293e-10
6.66571299e-07
-3.6415582e-10
6.66688374e-07
-5.89535812e-10
6.66873608e-07
-8.28343046e-10
6.67122861e-07
-1.04376064e-09
6.67420055e-07
-1.19242566e-09
6.67738861e-07
-1.23716636e-09
6.68047222e-07
-1.15815336e-09
6.68313318e-07
-9.57886273e-10
6.68511525e-07
-6.5909749e-10
6.68627541e-07
-2.97845032e-10
6.68657339e-07
8.23522584e-11
6.68605678e-07
4.43413453e-10
6.68486769e-07
7.5481292e-10
6.68315478e-07
9.94344169e-10
6.68108143e-07
1.1497333e-09
6.67881709e-07
1.21765131e-09
6.67652019e-07
1.20314344e-09
6.67432745e-07
1.11823633e-09
6.67236703e-07
9.78996629e-10
6.67073337e-07
8.08608858e-10
6.66946972e-07
6.35182616e-10
6.66854497e-07
4.90864204e-10
6.66783603e-07
4.09147381e-10
6.6671291e-07
4.19703843e-10
6.66615003e-07
5.41711375e-10
6.66461536e-07
7.78090953e-10
6.66228441e-07
1.11302802e-09
6.65900098e-07
1.51408232e-09
6.65471691e-07
1.93894612e-09
6.64949094e-07
2.3451479e-09
6.64346276e-07
2.69976604e-09
6.63681023e-07
2.98603578e-09
6.62970367e-07
3.20474732e-09
6.62227113e-07
3.37030014e-09
6.61458363e-07
3.50333454e-09
6.60666105e-07
3.62302528e-09
6.59849186e-07
3.74184247e-09
6.59005603e-07
3.86409376e-09
6.58134234e-07
3.98773348e-09
6.57235595e-07
4.1077067e-09
6.56311729e-07
4.21897935e-09
6.55365662e-07
4.3181668e-09
6.54400833e-07
4.40369017e-09
6.53420759e-07
4.47507299e-09
6.52428942e-07
4.53211145e-09
6.5142894e-07
4.57437627e-09
6.50424449e-07
4.60111937e-09
6.49419357e-07
4.61142491e-09
6.48417733e-07
4.60440384e-09
6.47423784e-07
4.5793159e-09
6.46441805e-07
4.53560448e-09
6.45476131e-07
4.472881e-09
6.44531096e-07
4.39090224e-09
6.43611002e-07
4.28955755e-09
6.42720076e-07
4.16886773e-09
6.41862431e-07
4.02898799e-09
6.41042027e-07
3.87021055e-09
6.40262628e-07
3.69296444e-09
6.39527779e-07
3.49781706e-09
6.38840781e-07
3.28547338e-09
6.38204694e-07
3.05677769e-09
6.37622356e-07
2.8127125e-09
6.37096409e-07
2.55438538e-09
6.3662933e-07
2.28301828e-09
6.36223466e-07
1.99992297e-09
6.35881049e-07
1.70646435e-09
6.35604287e-07
1.40402811e-09
6.35395467e-07
1.09395328e-09
6.35256652e-07
7.77070162e-10
6.35187996e-07
4.54612768e-10
6.35184804e-07
1.30108052e-10
6.35251413e-07
-1.97797223e-10
6.35389889e-07
-5.24490867e-10
6.35599809e-07
-8.4946148e-10
6.35880119e-07
-1.17141626e-09
6.36229339e-07
-1.48840107e-09
6.36645714e-07
-1.79873095e-09
6.37127055e-07
-2.10068799e-09
6.37670687e-07
-2.39241385e-09
6.38273478e-07
-2.67199779e-09
6.38931874e-07
-2.9375277e-09
6.39641945e-07
-3.18710389e-09
6.40399436e-07
-3.41888608e-09
6.41199824e-07
-3.63114565e-09
6.42038364e-07
-3.82233517e-09
6.42910128e-07
-3.99114082e-09
6.43810037e-07
-4.13652868e-09
6.44732902e-07
-4.25776469e-09
6.45673465e-07
-4.3544332e-09
6.46626464e-07
-4.42643804e-09
6.47586694e-07
-4.47398828e-09
6.48549076e-07
-4.49759124e-09
6.49508717e-07
-4.49803349e-09
6.5046097e-07
-4.47634956e-09
6.51401479e-07
-4.4337998e-09
6.52326224e-07
-4.37183709e-09
6.53231544e-07
-4.29206366e-09
6.54114166e-07
-4.19620078e-09
6.54971214e-07
-4.08604576e-09
6.55800215e-07
-3.96343888e-09
6.56599098e-07
-3.83022045e-09
6.57366185e-07
-3.68820921e-09
6.58100177e-07
-3.53916417e-09
6.58800134e-07
-3.3847683e-09
6.59465455e-07
-3.2266054e-09
6.60095846e-07
-3.06614856e-09
6.60691301e-07
-2.9047437e-09
6.61252068e-07
-2.74360767e-09
6.6177862e-07
-2.58382458e-09
6.62271631e-07
-2.42634179e-09
6.62731945e-07
-2.27197765e-09
6.63160548e-07
-2.12142663e-09
6.63558542e-07
-1.97526331e-09
6.63927124e-07
-1.83395448e-09
6.64267558e-07
-1.69786782e-09
6.64581159e-07
-1.56727866e-09
6.64869272e-07
-1.4423829e-09
6.65133258e-07
-1.32330508e-09
6.65374482e-07
-1.21010981e-09
6.65594298e-07
-1.10280926e-09
6.65794036e-07
-1.0013744e-09
6.65974991e-07
-9.05742701e-10
6.66138401e-07
-8.15822759e-10
6.66285435e-07
-7.31499648e-10
6.66417189e-07
-6.52635781e-10
6.66534678e-07
-5.79067919e-10
6.66638855e-07
-5.10603664e-10
6.66730624e-07
-4.47022096e-10
6.66810846e-07
-3.88077553e-10
6.66880347e-07
-3.33507053e-10
6.66939924e-07
-2.83037746e-10
6.6699034e-07
-2.36392595e-10
6.67032322e-07
-1.93294848e-10
6.67066572e-07
-1.53470396e-10
6.67093766e-07
-1.16649997e-10
6.67114565e-07
-8.25700424e-11
6.67129647e-07
-5.097328e-11
6.67139944e-07
-2.16872534e-11
6.67145678e-07
4.97548708e-12
6.6714651e-07
2.99252739e-11
6.67143951e-07
5.28809127e-11
6.67138894e-07
7.41504906e-11
6.67131769e-07
9.38148532e-11
6.67122762e-07
1.11876806e-10
6.67111985e-07
1.28273893e-10
6.67099507e-07
1.42990175e-10
6.67085374e-07
1.56062115e-10
6.6706965e-07
1.6756139e-10
6.6705242e-07
1.7758533e-10
6.67033793e-07
1.86246762e-10
6.67013898e-07
1.93663908e-10
6.66992873e-07
1.9995342e-10
6.66970862e-07
2.05225537e-10
6.66948007e-07
2.09580925e-10
6.66924442e-07
2.13109871e-10
6.66900295e-07
2.15892009e-10
6.66875681e-07
2.17996747e-10
6.66850706e-07
2.1948372e-10
6.66825461e-07
2.20404715e-10
6.66800025e-07
2.20804602e-10
6.66774468e-07
2.20723259e-10
6.66748844e-07
2.20196762e-10
6.66723203e-07
2.19258808e-10
6.66697584e-07
2.17941255e-10
6.66672023e-07
2.1627504e-10
6.66646549e-07
2.14290441e-10
6.66621191e-07
2.12016741e-10
6.66595976e-07
2.09482398e-10
6.66570927e-07
2.0671484e-10
6.66546069e-07
2.03740052e-10
6.66521425e-07
2.00581992e-10
6.66497016e-07
1.9726239e-10
6.66472862e-07
1.93800674e-10
6.66448983e-07
1.90214283e-10
6.66425395e-07
1.86518528e-10
6.66402114e-07
1.82726888e-10
6.66379153e-07
1.78850792e-10
6.66356524e-07
1.74900435e-10
6.66334238e-07
1.70883796e-10
6.66312305e-07
1.66809833e-10
6.66290743e-07
1.62666336e-10
6.66269574e-07
1.58507727e-10
6.66248844e-07
1.54098023e-10
6.66228598e-07
1.50344483e-10
1.43144805e-10
6.66637754e-07
8.53254874e-11
6.66574749e-07
1.59626135e-10
6.66505971e-07
1.32458603e-10
6.66455459e-07
2.08961975e-11
6.66440977e-07
-1.59670312e-10
6.66482058e-07
-4.05236277e-10
6.66595787e-07
-7.03265228e-10
6.66792425e-07
-1.02498137e-09
6.67070475e-07
-1.32181048e-09
6.6741363e-07
-1.53558023e-09
6.67791905e-07
-1.615442e-09
6.68166892e-07
-1.53314048e-09
6.68499217e-07
-1.29021068e-09
6.68755882e-07
-9.15762146e-10
6.68915366e-07
-4.5732937e-10
6.68967117e-07
3.06015705e-11
6.68910442e-07
5.00087702e-10
6.68761994e-07
9.03261222e-10
6.6854384e-07
1.21249777e-09
6.68281209e-07
1.41236516e-09
6.67998672e-07
1.50018778e-09
6.67719205e-07
1.48261082e-09
6.67463665e-07
1.37377598e-09
6.67248046e-07
1.19461548e-09
6.6708378e-07
9.72874889e-10
6.6697547e-07
7.43492709e-10
6.66918619e-07
5.47714915e-10
6.66898293e-07
4.294743e-10
6.66889564e-07
4.28432264e-10
6.66859904e-07
5.71371542e-10
6.66773651e-07
8.64344198e-10
6.66598334e-07
1.28834512e-09
6.66311049e-07
1.80136694e-09
6.65902833e-07
2.34716195e-09
6.65379587e-07
2.8683944e-09
6.64759217e-07
3.32013601e-09
6.64065943e-07
3.67930937e-09
6.6332368e-07
3.94701046e-09
6.62550661e-07
4.14331863e-09
6.61756861e-07
4.29713497e-09
6.60944528e-07
4.43535817e-09
6.60110945e-07
4.57542578e-09
6.59251854e-07
4.72318423e-09
6.58364152e-07
4.87543629e-09
6.57447131e-07
5.02472771e-09
6.56502394e-07
5.16371547e-09
6.55533035e-07
5.28752625e-09
6.54542747e-07
5.39397861e-09
6.53535274e-07
5.48254548e-09
6.5251426e-07
5.55312511e-09
6.51483342e-07
5.60529456e-09
6.50446302e-07
5.63815963e-09
6.49407158e-07
5.65056913e-09
6.48370164e-07
5.64139749e-09
6.47339757e-07
5.60972294e-09
6.46320484e-07
5.55487748e-09
6.45316943e-07
5.47642209e-09
6.44333734e-07
5.37411126e-09
6.43375419e-07
5.24787263e-09
6.42446482e-07
5.09780406e-09
6.41551294e-07
4.92417627e-09
6.40694071e-07
4.72743321e-09
6.3987885e-07
4.50818603e-09
6.3910946e-07
4.26720676e-09
6.38389515e-07
4.0054185e-09
6.37722402e-07
3.72389097e-09
6.37111278e-07
3.42383605e-09
6.36559072e-07
3.10659148e-09
6.36068481e-07
2.77360896e-09
6.35641977e-07
2.42642766e-09
6.35281798e-07
2.06664274e-09
6.34989946e-07
1.69588035e-09
6.34768109e-07
1.31579037e-09
6.3461718e-07
9.2799937e-10
6.34537872e-07
5.33920435e-10
6.34533925e-07
1.34055552e-10
6.34602998e-07
-2.66870181e-10
6.3474626e-07
-6.67753065e-10
6.34963363e-07
-1.06656412e-09
6.35253629e-07
-1.4616828e-09
6.35616123e-07
-1.85089474e-09
6.36049294e-07
-2.2319024e-09
6.36551035e-07
-2.60242907e-09
6.37118736e-07
-2.96011508e-09
6.37749278e-07
-3.30253944e-09
6.3843904e-07
-3.62728932e-09
6.39183939e-07
-3.93200338e-09
6.39979484e-07
-4.21443036e-09
6.40820817e-07
-4.47247959e-09
6.41702774e-07
-4.70429166e-09
6.42619924e-07
-4.90829127e-09
6.43566634e-07
-5.08323849e-09
6.44537124e-07
-5.22825413e-09
6.45525538e-07
-5.34284797e-09
6.46526027e-07
-5.42692669e-09
6.4753282e-07
-5.48078108e-09
6.48540308e-07
-5.5050794e-09
6.49543118e-07
-5.50084331e-09
6.50536175e-07
-5.46940696e-09
6.51514762e-07
-5.41238649e-09
6.52474561e-07
-5.33163566e-09
6.53411687e-07
-5.2291898e-09
6.54322712e-07
-5.10722592e-09
6.55204674e-07
-4.96800808e-09
6.56055081e-07
-4.81384537e-09
6.56871899e-07
-4.64703853e-09
6.57653542e-07
-4.4698529e-09
6.5839885e-07
-4.28447152e-09
6.59107057e-07
-4.09297506e-09
6.59777765e-07
-3.8973138e-09
6.60410911e-07
-3.69929411e-09
6.61006726e-07
-3.50055945e-09
6.61565708e-07
-3.30258932e-09
6.62088579e-07
-3.10669597e-09
6.62576258e-07
-2.91402075e-09
6.63029825e-07
-2.72554407e-09
6.6345049e-07
-2.54209203e-09
6.63839569e-07
-2.36434169e-09
6.6419845e-07
-2.19283622e-09
6.64528579e-07
-2.02799616e-09
6.64831428e-07
-1.87012822e-09
6.65108486e-07
-1.71944112e-09
6.65361237e-07
-1.57605525e-09
6.65591143e-07
-1.44001589e-09
6.65799635e-07
-1.31130197e-09
6.65988101e-07
-1.18984029e-09
6.66157875e-07
-1.07551637e-09
6.66310234e-07
-9.68181806e-10
6.66446395e-07
-8.67661085e-10
6.66567512e-07
-7.73752722e-10
6.66674672e-07
-6.86227814e-10
6.667689e-07
-6.0483151e-10
6.66851163e-07
-5.29285098e-10
6.66922375e-07
-4.59289928e-10
6.66983403e-07
-3.94534689e-10
6.67035067e-07
-3.3470179e-10
6.67078147e-07
-2.79472779e-10
6.67113386e-07
-2.28533859e-10
6.67141495e-07
-1.81579259e-10
6.6716316e-07
-1.38314322e-10
6.67179051e-07
-9.84610215e-11
6.67189853e-07
-6.17755007e-11
6.67196268e-07
-2.81024141e-11
6.67198792e-07
2.45184846e-12
6.67197238e-07
3.14793162e-11
6.67192244e-07
5.78748236e-11
6.67184142e-07
8.22525712e-11
6.67173359e-07
1.04597782e-10
6.67160353e-07
1.24882257e-10
6.67145468e-07
1.43159388e-10
6.67128946e-07
1.5951145e-10
6.67110979e-07
1.74029506e-10
6.67091716e-07
1.86824007e-10
6.67071284e-07
1.98017849e-10
6.67049795e-07
2.07735844e-10
6.67027358e-07
2.16100994e-10
6.6700408e-07
2.23231659e-10
6.66980066e-07
2.29238746e-10
6.66955423e-07
2.34224015e-10
6.66930253e-07
2.38280406e-10
6.66904652e-07
2.41492539e-10
6.66878713e-07
2.43936284e-10
6.66852518e-07
2.45678698e-10
6.66826143e-07
2.46779499e-10
6.66799656e-07
2.47291475e-10
6.66773117e-07
2.47262182e-10
6.66746579e-07
2.46734896e-10
6.66720088e-07
2.4574992e-10
6.66693684e-07
2.4434497e-10
6.66667403e-07
2.42556078e-10
6.66641276e-07
2.4041783e-10
6.66615329e-07
2.37963005e-10
6.66589589e-07
2.35222793e-10
6.66564077e-07
2.32226688e-10
6.66538813e-07
2.2900435e-10
6.66513813e-07
2.25582002e-10
6.66489093e-07
2.21982466e-10
6.66464667e-07
2.18226322e-10
6.66440549e-07
2.14332134e-10
6.66416752e-07
2.10316344e-10
6.66393285e-07
2.06193546e-10
6.6637016e-07
2.01976042e-10
6.66347386e-07
1.97674524e-10
6.66324973e-07
1.93296436e-10
6.66302931e-07
1.88851335e-10
6.66281269e-07
1.84328842e-10
6.66259985e-07
1.79791159e-10
6.66239076e-07
1.75007803e-10
6.66218447e-07
1.70973194e-10
1.63536711e-10
6.66638364e-07
1.13661475e-10
6.66579595e-07
2.1839553e-10
6.66516701e-07
1.95352215e-10
6.6646974e-07
6.78572451e-11
6.66462376e-07
-1.52306658e-10
6.66510426e-07
-4.53286263e-10
6.66628823e-07
-8.21662055e-10
6.66826334e-07
-1.22249235e-09
6.67100996e-07
-1.59647253e-09
6.67437206e-07
-1.87178991e-09
6.67806653e-07
-1.98488923e-09
6.68173054e-07
-1.899541e-09
6.68498928e-07
-1.61608497e-09
6.68752073e-07
-1.16890741e-09
6.68910428e-07
-6.15684154e-10
6.68962319e-07
-2.12896696e-11
6.68922295e-07
5.4011221e-10
6.68796837e-07
1.028719e-09
6.68604058e-07
1.40527683e-09
6.68365213e-07
1.65121037e-09
6.68103422e-07
1.76197882e-09
6.6784073e-07
1.74530276e-09
6.67596581e-07
1.61792515e-09
6.67387176e-07
1.4040202e-09
6.67224506e-07
1.13554469e-09
6.67114426e-07
8.53572892e-10
6.67054173e-07
6.07968092e-10
6.67030396e-07
4.53251326e-10
6.67018861e-07
4.39967332e-10
6.66987242e-07
6.02989993e-10
6.66900659e-07
9.50926918e-10
6.6672785e-07
1.46115451e-09
6.66446696e-07
2.08252061e-09
6.6604795e-07
2.74590838e-09
6.65536096e-07
3.38024785e-09
6.64926958e-07
3.92927411e-09
6.64242681e-07
4.3635872e-09
6.6350571e-07
4.68398116e-09
6.62733721e-07
4.91530795e-09
6.61936971e-07
5.09388481e-09
6.61118511e-07
5.25381781e-09
6.60276534e-07
5.41740322e-09
6.59407485e-07
5.59223245e-09
6.58508626e-07
5.77429603e-09
6.57579312e-07
5.95404142e-09
6.56621043e-07
6.121984e-09
6.55636781e-07
6.2717887e-09
6.54630151e-07
6.40060894e-09
6.53604918e-07
6.50777829e-09
6.52564818e-07
6.59322508e-09
6.51513621e-07
6.65649118e-09
6.50455262e-07
6.69651842e-09
6.49393919e-07
6.71191257e-09
6.48334012e-07
6.70130428e-09
6.47280155e-07
6.66358008e-09
6.46237084e-07
6.59794872e-09
6.45209596e-07
6.50390989e-09
6.442025e-07
6.38120779e-09
6.43220568e-07
6.22980406e-09
6.42268499e-07
6.04987364e-09
6.41350867e-07
5.84180824e-09
6.40472083e-07
5.60621669e-09
6.39636353e-07
5.34391638e-09
6.38847638e-07
5.0559215e-09
6.38109634e-07
4.74342239e-09
6.3742576e-07
4.40776502e-09
6.36799169e-07
4.05042728e-09
6.36232774e-07
3.67298671e-09
6.35729276e-07
3.27710694e-09
6.35291182e-07
2.86452105e-09
6.3492081e-07
2.43701528e-09
6.34620268e-07
1.9964221e-09
6.34391438e-07
1.54462063e-09
6.34235958e-07
1.08347934e-09
6.34154919e-07
6.14959066e-10
6.34147319e-07
1.41655556e-10
6.34215435e-07
-3.34986243e-10
6.34359606e-07
-8.11923503e-10
6.34580045e-07
-1.28700378e-09
6.348761e-07
-1.75773804e-09
6.35246685e-07
-2.22147887e-09
6.35690251e-07
-2.67546868e-09
6.36204718e-07
-3.11689611e-09
6.36787475e-07
-3.54287255e-09
6.37435391e-07
-3.95045474e-09
6.38144815e-07
-4.33671404e-09
6.38911602e-07
-4.6987896e-09
6.39731132e-07
-5.03396037e-09
6.40598356e-07
-5.33970344e-09
6.4150784e-07
-5.6137761e-09
6.42453828e-07
-5.8542788e-09
6.43430308e-07
-6.05971849e-09
6.44431096e-07
-6.22904228e-09
6.45449922e-07
-6.36167446e-09
6.46480524e-07
-6.45752867e-09
6.47516737e-07
-6.51699368e-09
6.48552582e-07
-6.54092498e-09
6.49582353e-07
-6.53061394e-09
6.50600682e-07
-6.48773598e-09
6.51602606e-07
-6.41431024e-09
6.52583613e-07
-6.31264262e-09
6.53539678e-07
-6.1852548e-09
6.54467285e-07
-6.03483289e-09
6.55363436e-07
-5.86415919e-09
6.5622565e-07
-5.67605946e-09
6.57051949e-07
-5.47333765e-09
6.57840839e-07
-5.25874238e-09
6.58591278e-07
-5.03491083e-09
6.59302648e-07
-4.80434486e-09
6.59974712e-07
-4.56937857e-09
6.60607581e-07
-4.3321632e-09
6.61201668e-07
-4.09464616e-09
6.6175765e-07
-3.85857116e-09
6.6227643e-07
-3.62547575e-09
6.62759097e-07
-3.39668837e-09
6.63206895e-07
-3.17334143e-09
6.63621183e-07
-2.9563805e-09
6.64003413e-07
-2.74657187e-09
6.64355099e-07
-2.54452136e-09
6.64677791e-07
-2.35068819e-09
6.64973059e-07
-2.16539629e-09
6.65242472e-07
-1.98885402e-09
6.65487584e-07
-1.82116715e-09
6.65709923e-07
-1.66235582e-09
6.65910987e-07
-1.51236525e-09
6.66092226e-07
-1.37107981e-09
6.66255041e-07
-1.23833084e-09
6.66400761e-07
-1.11390159e-09
6.66530636e-07
-9.97537023e-10
6.66645835e-07
-8.88951635e-10
6.66747443e-07
-7.87835529e-10
6.66836473e-07
-6.93861309e-10
6.66913875e-07
-6.06687464e-10
6.66980546e-07
-5.25960856e-10
6.67037333e-07
-4.51321934e-10
6.6708504e-07
-3.82408802e-10
6.67124428e-07
-3.18860681e-10
6.67156217e-07
-2.60322361e-10
6.67181085e-07
-2.06447281e-10
6.67199671e-07
-1.56900229e-10
6.67212568e-07
-1.11358468e-10
6.67220298e-07
-6.9505088e-11
6.67223151e-07
-3.09553357e-11
6.67220804e-07
4.79878862e-12
6.67215925e-07
3.63583082e-11
6.67208136e-07
6.56632977e-11
6.67197995e-07
9.23937808e-11
6.67185868e-07
1.16725375e-10
6.67171919e-07
1.38830861e-10
6.67156268e-07
1.58809923e-10
6.67139045e-07
1.76735143e-10
6.6712037e-07
1.92704596e-10
6.67100359e-07
2.06834417e-10
6.67079133e-07
2.19243727e-10
6.67056817e-07
2.30052077e-10
6.67033539e-07
2.39379591e-10
6.67009426e-07
2.47343823e-10
6.66984607e-07
2.54057955e-10
6.66959203e-07
2.59628391e-10
6.66933328e-07
2.64155313e-10
6.66907085e-07
2.67735073e-10
6.66880568e-07
2.70454063e-10
6.66853857e-07
2.72389054e-10
6.66827027e-07
2.73609302e-10
6.66800142e-07
2.74177013e-10
6.66773255e-07
2.74148783e-10
6.66746414e-07
2.7357611e-10
6.66719658e-07
2.72506405e-10
6.66693019e-07
2.70983157e-10
6.66666529e-07
2.69046902e-10
6.66640211e-07
2.66735635e-10
6.66614089e-07
2.64084696e-10
6.66588185e-07
2.61127395e-10
6.66562516e-07
2.57895157e-10
6.66537103e-07
2.54417313e-10
6.66511964e-07
2.50720865e-10
6.66487116e-07
2.46830525e-10
6.66462574e-07
2.42768632e-10
6.66438351e-07
2.38555509e-10
6.66414458e-07
2.3420916e-10
6.66390906e-07
2.29745592e-10
6.66367703e-07
2.25178366e-10
6.66344858e-07
2.20519375e-10
6.66322378e-07
2.15777321e-10
6.66300266e-07
2.10963007e-10
6.66278529e-07
2.06066152e-10
6.66257177e-07
2.01142682e-10
6.66236234e-07
1.9595098e-10
6.66215788e-07
1.91419056e-10
1.83210953e-10
6.66635316e-07
1.45045197e-10
6.66568797e-07
2.84914462e-10
6.66496038e-07
2.68111682e-10
6.66443926e-07
1.19969041e-10
6.6642903e-07
-1.37410699e-10
6.66473147e-07
-4.97403425e-10
6.6659439e-07
-9.42905173e-10
6.66803769e-07
-1.43187057e-09
6.67100166e-07
-1.89286947e-09
6.674672e-07
-2.23882451e-09
6.67874074e-07
-2.39176348e-09
6.6828066e-07
-2.30612663e-09
6.68645081e-07
-1.98050583e-09
6.68931355e-07
-1.45518143e-09
6.69114993e-07
-7.99322201e-10
6.69188602e-07
-9.48988729e-11
6.6914466e-07
5.84054484e-10
6.69003576e-07
1.16980249e-09
6.68787368e-07
1.62148563e-09
6.68522406e-07
1.91617209e-09
6.68235212e-07
2.04917292e-09
6.67951091e-07
2.02942408e-09
6.67692892e-07
1.87612325e-09
6.67479595e-07
1.61731814e-09
6.67324461e-07
1.29067808e-09
6.67232863e-07
9.45170611e-10
6.67200116e-07
6.40715495e-10
6.67210344e-07
4.43023236e-10
6.67237234e-07
4.13077622e-10
6.6724641e-07
5.9381397e-10
6.67199694e-07
9.97642307e-10
6.67061703e-07
1.59914577e-09
6.66806745e-07
2.33747893e-09
6.66423657e-07
3.12899618e-09
6.65917e-07
3.88690483e-09
6.6530428e-07
4.54199419e-09
6.64610181e-07
5.05768664e-09
6.63859735e-07
5.43442709e-09
6.63072635e-07
5.70240795e-09
6.62260296e-07
5.90622338e-09
6.61426091e-07
6.08802306e-09
6.60567934e-07
6.27555988e-09
6.59681711e-07
6.47845605e-09
6.58764098e-07
6.69190884e-09
6.57814011e-07
6.90412793e-09
6.56832694e-07
7.10330127e-09
6.55823008e-07
7.28147436e-09
6.54788585e-07
7.43503185e-09
6.53733255e-07
7.56310907e-09
6.52660852e-07
7.66562823e-09
6.51575279e-07
7.74206389e-09
6.50480639e-07
7.79115776e-09
6.49381319e-07
7.81123322e-09
6.48281984e-07
7.80063948e-09
6.47187523e-07
7.75804044e-09
6.46102972e-07
7.68250015e-09
6.45033436e-07
7.57344618e-09
6.43984031e-07
7.43061206e-09
6.42959833e-07
7.25400241e-09
6.41965822e-07
7.04388493e-09
6.4100684e-07
6.80079018e-09
6.40087551e-07
6.52550523e-09
6.39212413e-07
6.21905406e-09
6.38385661e-07
5.88267376e-09
6.37611298e-07
5.51778535e-09
6.36893089e-07
5.12597456e-09
6.36234539e-07
4.70897728e-09
6.35638873e-07
4.26865273e-09
6.35109013e-07
3.80696695e-09
6.34647573e-07
3.32596061e-09
6.34256873e-07
2.82771535e-09
6.33938956e-07
2.31433912e-09
6.33695616e-07
1.78796105e-09
6.3352835e-07
1.25074469e-09
6.3343838e-07
7.04928965e-10
6.33427164e-07
1.52871957e-10
6.33495178e-07
-4.03000603e-10
6.33642786e-07
-9.59531142e-10
6.33869974e-07
-1.51419192e-09
6.34176386e-07
-2.06414988e-09
6.34561251e-07
-2.60634406e-09
6.35023282e-07
-3.13749906e-09
6.35560591e-07
-3.65420593e-09
6.36170676e-07
-4.15295727e-09
6.36850401e-07
-4.63017918e-09
6.37595993e-07
-5.08230632e-09
6.38403058e-07
-5.50585476e-09
6.39266616e-07
-5.89751802e-09
6.40181153e-07
-6.25424044e-09
6.41140691e-07
-6.57331411e-09
6.42138865e-07
-6.85245276e-09
6.43169012e-07
-7.08986621e-09
6.44224271e-07
-7.28430102e-09
6.45297683e-07
-7.43508609e-09
6.46382303e-07
-7.5421493e-09
6.47471312e-07
-7.60600221e-09
6.48558116e-07
-7.62772929e-09
6.49636451e-07
-7.60894874e-09
6.50700462e-07
-7.55174678e-09
6.51744776e-07
-7.45862441e-09
6.52764557e-07
-7.33242406e-09
6.53755543e-07
-7.17624044e-09
6.54714065e-07
-6.99335453e-09
6.55637054e-07
-6.78714887e-09
6.56522037e-07
-6.561042e-09
6.57367109e-07
-6.31840946e-09
6.58170909e-07
-6.06254278e-09
6.58932582e-07
-5.79658337e-09
6.59651732e-07
-5.52349474e-09
6.60328378e-07
-5.24602546e-09
6.60962908e-07
-4.96669293e-09
6.61556023e-07
-4.68776089e-09
6.62108693e-07
-4.41124175e-09
6.62622114e-07
-4.13889617e-09
6.63097658e-07
-3.87223236e-09
6.6353684e-07
-3.61252335e-09
6.63941279e-07
-3.36081962e-09
6.64312667e-07
-3.11795964e-09
6.64652739e-07
-2.8845932e-09
6.6496325e-07
-2.66119926e-09
6.65245954e-07
-2.44810036e-09
6.65502585e-07
-2.24548567e-09
6.65734843e-07
-2.0534248e-09
6.65944373e-07
-1.87188532e-09
6.66132751e-07
-1.70074407e-09
6.66301478e-07
-1.53980646e-09
6.6645197e-07
-1.38882317e-09
6.66585572e-07
-1.24750287e-09
6.66703559e-07
-1.11552432e-09
6.66807147e-07
-9.92539862e-10
6.66897487e-07
-8.78175754e-10
6.66975663e-07
-7.72037116e-10
6.67042689e-07
-6.73712813e-10
6.67099508e-07
-5.82780647e-10
6.67147002e-07
-4.9881523e-10
6.67185986e-07
-4.21393412e-10
6.67217224e-07
-3.50098087e-10
6.67241424e-07
-2.84522939e-10
6.67259253e-07
-2.24276067e-10
6.67271336e-07
-1.68983397e-10
6.67278274e-07
-1.18296238e-10
6.67280683e-07
-7.1913854e-11
6.67279404e-07
-2.96761978e-11
6.67275664e-07
8.53807528e-12
6.67267522e-07
4.45006081e-11
6.67256311e-07
7.68740119e-11
6.67242373e-07
1.06331643e-10
6.67226048e-07
1.33050669e-10
6.67207736e-07
1.57143412e-10
6.67187819e-07
1.78726749e-10
6.67166585e-07
1.97969412e-10
6.67144233e-07
2.15056335e-10
6.67120903e-07
2.30164041e-10
6.67096707e-07
2.43439716e-10
6.67071752e-07
2.55007077e-10
6.6704614e-07
2.64992205e-10
6.67019964e-07
2.73519853e-10
6.66993312e-07
2.80709941e-10
6.66966265e-07
2.86674985e-10
6.669389e-07
2.91520154e-10
6.66911292e-07
2.95343353e-10
6.66883511e-07
2.9823455e-10
6.66855625e-07
3.00275358e-10
6.66827694e-07
3.01540327e-10
6.66799774e-07
3.02096871e-10
6.66771916e-07
3.02006667e-10
6.66744166e-07
3.0132621e-10
6.66716565e-07
3.00107891e-10
6.66689148e-07
2.98400109e-10
6.66661946e-07
2.96248189e-10
6.66634987e-07
2.93694658e-10
6.66608293e-07
2.90778936e-10
6.66581883e-07
2.8753788e-10
6.66555772e-07
2.84005837e-10
6.66529975e-07
2.80214296e-10
6.66504504e-07
2.76192261e-10
6.66479368e-07
2.71966163e-10
6.66454577e-07
2.6755959e-10
6.66430139e-07
2.62993949e-10
6.6640606e-07
2.58288264e-10
6.66382346e-07
2.53459548e-10
6.66359002e-07
2.48522319e-10
6.66336032e-07
2.43489515e-10
6.66313438e-07
2.38370779e-10
6.66291222e-07
2.33178792e-10
6.66269384e-07
2.27904757e-10
6.66247909e-07
2.2261706e-10
6.66226775e-07
2.17085469e-10
6.66205838e-07
2.12356304e-10
2.04060989e-10
6.66636534e-07
1.75110826e-10
6.66571752e-07
3.49696619e-10
6.66500104e-07
3.39759586e-10
6.66444647e-07
1.75426583e-10
6.66431332e-07
-1.24096283e-10
6.66479472e-07
-5.455435e-10
6.66605806e-07
-1.06923913e-09
6.66820543e-07
-1.64660732e-09
6.67122269e-07
-2.19459498e-09
6.67494697e-07
-2.61125307e-09
6.67907501e-07
-2.80456723e-09
6.68321267e-07
-2.7198929e-09
6.68694781e-07
-2.3540193e-09
6.68992244e-07
-1.75264475e-09
6.691886e-07
-9.95677679e-10
6.69271268e-07
-1.77566959e-10
6.69244954e-07
6.1036861e-10
6.69121004e-07
1.29375167e-09
6.68920599e-07
1.8218907e-09
6.68669002e-07
2.16776938e-09
6.68392898e-07
2.32527723e-09
6.68118014e-07
2.30430769e-09
6.67867527e-07
2.12661047e-09
6.67660769e-07
1.82407552e-09
6.67511687e-07
1.43976026e-09
6.67426799e-07
1.03005848e-09
6.67402879e-07
6.64635718e-10
6.67424982e-07
4.20920326e-10
6.67466016e-07
3.72043609e-10
6.67489842e-07
5.69988227e-10
6.67457396e-07
1.03008865e-09
6.67333249e-07
1.72329238e-09
6.6709168e-07
2.57904776e-09
6.66721007e-07
3.49966964e-09
6.66224863e-07
4.38304796e-09
6.65619806e-07
5.14705196e-09
6.64929869e-07
5.74762368e-09
6.64179869e-07
6.18442708e-09
6.63389642e-07
6.49263444e-09
6.62570923e-07
6.72494308e-09
6.61727384e-07
6.93156108e-09
6.60857123e-07
7.14582147e-09
6.59956067e-07
7.37951167e-09
6.5902086e-07
7.62711612e-09
6.5805037e-07
7.87461788e-09
6.57045832e-07
8.10783949e-09
6.56010156e-07
8.3171504e-09
6.54947074e-07
8.49811361e-09
6.53860559e-07
8.6496244e-09
6.52754622e-07
8.77156457e-09
6.51633377e-07
8.86330885e-09
6.5050117e-07
8.92336549e-09
6.49362661e-07
8.9497424e-09
6.48222823e-07
8.94047719e-09
6.47086878e-07
8.89398564e-09
6.45960211e-07
8.80916684e-09
6.44848297e-07
8.68536048e-09
6.43756632e-07
8.52227709e-09
6.42690679e-07
8.31995479e-09
6.41655816e-07
8.07874842e-09
6.40657276e-07
7.79932977e-09
6.39700099e-07
7.48268261e-09
6.38789069e-07
7.13008416e-09
6.37928663e-07
6.74307963e-09
6.37123007e-07
6.32344067e-09
6.36375862e-07
5.87311972e-09
6.3569064e-07
5.39419991e-09
6.35070453e-07
4.88883949e-09
6.34518169e-07
4.35925113e-09
6.34036441e-07
3.8076881e-09
6.3362772e-07
3.23643623e-09
6.33294231e-07
2.64782862e-09
6.33037928e-07
2.04426379e-09
6.3286047e-07
1.42820255e-09
6.32763254e-07
8.02145626e-10
6.3274735e-07
1.68775811e-10
6.32813749e-07
-4.69400274e-10
6.32963434e-07
-1.10921534e-09
6.33196718e-07
-1.74747651e-09
6.33513364e-07
-2.38079566e-09
6.33912615e-07
-3.00559466e-09
6.34393193e-07
-3.61807727e-09
6.34953235e-07
-4.21424832e-09
6.35590243e-07
-4.78996502e-09
6.36301051e-07
-5.34098711e-09
6.37081805e-07
-5.86306009e-09
6.37927953e-07
-6.35200286e-09
6.38834264e-07
-6.80382879e-09
6.39794864e-07
-7.21484058e-09
6.40803302e-07
-7.58175264e-09
6.41852637e-07
-7.9017878e-09
6.42935545e-07
-8.17277397e-09
6.44044443e-07
-8.39319915e-09
6.45171626e-07
-8.56226872e-09
6.46309402e-07
-8.67992586e-09
6.47450232e-07
-8.74683218e-09
6.48586854e-07
-8.76435088e-09
6.497124e-07
-8.73449518e-09
6.50820498e-07
-8.65984465e-09
6.51905349e-07
-8.54347484e-09
6.52961788e-07
-8.3888634e-09
6.53985326e-07
-8.19977831e-09
6.54972165e-07
-7.98019349e-09
6.559192e-07
-7.73418432e-09
6.56824005e-07
-7.46584646e-09
6.57684796e-07
-7.17920115e-09
6.58500399e-07
-6.87814539e-09
6.59270191e-07
-6.56637524e-09
6.5999405e-07
-6.24735406e-09
6.60672296e-07
-5.92427161e-09
6.61305631e-07
-5.60002774e-09
6.6189508e-07
-5.27720969e-09
6.62441936e-07
-4.95809787e-09
6.62947709e-07
-4.64466852e-09
6.63414072e-07
-4.33859604e-09
6.63842825e-07
-4.04127568e-09
6.64235846e-07
-3.7538409e-09
6.64595064e-07
-3.47717811e-09
6.64922426e-07
-3.21195529e-09
6.65219871e-07
-2.9586436e-09
6.65489306e-07
-2.7175352e-09
6.65732591e-07
-2.48877141e-09
6.65951529e-07
-2.27236243e-09
6.66147856e-07
-2.06821259e-09
6.66323249e-07
-1.87613662e-09
6.6647932e-07
-1.69587782e-09
6.66617613e-07
-1.52711614e-09
6.66739583e-07
-1.36947268e-09
6.66846581e-07
-1.2225227e-09
6.6693985e-07
-1.08580894e-09
6.67020528e-07
-9.58853838e-10
6.67089663e-07
-8.41171967e-10
6.67148226e-07
-7.32275502e-10
6.67197122e-07
-6.31676568e-10
6.67237198e-07
-5.38891133e-10
6.67269247e-07
-4.53442297e-10
6.67294012e-07
-3.7486294e-10
6.67312188e-07
-3.02699829e-10
6.67324429e-07
-2.36516291e-10
6.6733134e-07
-1.75894389e-10
6.67333478e-07
-1.20434034e-10
6.67331295e-07
-6.97311754e-11
6.67324878e-07
-2.3258919e-11
6.67314256e-07
1.91598109e-11
6.67301622e-07
5.71348168e-11
6.67286656e-07
9.18398893e-11
6.672697e-07
1.23287338e-10
6.6725099e-07
1.51760613e-10
6.67230669e-07
1.77464248e-10
6.67208881e-07
2.0051495e-10
6.67185784e-07
2.21066542e-10
6.67161543e-07
2.3929774e-10
6.67136326e-07
2.55380486e-10
6.67110291e-07
2.6947453e-10
6.6708357e-07
2.81728829e-10
6.67056276e-07
2.92285541e-10
6.67028516e-07
3.01279746e-10
6.67000387e-07
3.08839222e-10
6.66971978e-07
3.15083803e-10
6.66943373e-07
3.20125817e-10
6.66914646e-07
3.24069831e-10
6.66885868e-07
3.27012789e-10
6.668571e-07
3.29043551e-10
6.66828396e-07
3.30244199e-10
6.66799803e-07
3.30689662e-10
6.66771361e-07
3.30448795e-10
6.66743103e-07
3.29584506e-10
6.66715056e-07
3.28154577e-10
6.66687244e-07
3.26211609e-10
6.66659689e-07
3.23804057e-10
6.66632406e-07
3.20976724e-10
6.66605415e-07
3.17770695e-10
6.66578728e-07
3.14224185e-10
6.66552361e-07
3.10372785e-10
6.66526327e-07
3.06249128e-10
6.66500635e-07
3.0188344e-10
6.66475298e-07
2.97303535e-10
6.66450323e-07
2.92534435e-10
6.66425718e-07
2.8759899e-10
6.66401489e-07
2.82517632e-10
6.6637764e-07
2.77308765e-10
6.66354174e-07
2.71988229e-10
6.66331093e-07
2.66570276e-10
6.66308398e-07
2.61065818e-10
6.66286088e-07
2.55488645e-10
6.66264162e-07
2.49830576e-10
6.66242625e-07
2.44154432e-10
6.6622149e-07
2.38220482e-10
6.66200864e-07
2.32981865e-10
2.23908372e-10
6.66634826e-07
2.0698451e-10
6.66566955e-07
4.17568237e-10
6.66492641e-07
4.14072806e-10
6.66438433e-07
2.29635446e-10
6.66425424e-07
-1.11087692e-10
6.66475734e-07
-5.95853294e-10
6.6660803e-07
-1.20153547e-09
6.66833572e-07
-1.87214875e-09
6.67151149e-07
-2.51217274e-09
6.67543834e-07
-3.00393773e-09
6.67979846e-07
-3.24057919e-09
6.68417815e-07
-3.15786236e-09
6.6881445e-07
-2.75065399e-09
6.69132071e-07
-2.07026523e-09
6.69344161e-07
-1.2077677e-09
6.69438173e-07
-2.71579577e-10