/*--------------------------------*- C++ -*----------------------------------*\
| =========                 |                                                 |
| \\      /  F ield         | OpenFOAM: The Open Source CFD Toolbox           |
|  \\    /   O peration     | Version:  v2012                                 |
|   \\  /    A nd           | Website:  www.openfoam.com                      |
|    \\/     M anipulation  |                                                 |
\*---------------------------------------------------------------------------*/
FoamFile
{
    version     2.0;
    format      ascii;
    class       surfaceScalarField;
    location    "2.09";
    object      phiHbyA;
}
// * * * * * * * * * * * * * * * * * * * * * * * * * * * * * * * * * * * * * //

dimensions      [0 3 -1 0 0 0 0];
oriented        oriented;


internalField   nonuniform List<scalar> 
56481
(
6.66638492e-07
5.51047953e-11
6.66588108e-07
9.52259208e-11
6.66542505e-07
6.23135987e-11
6.66513767e-07
-3.09485252e-11
6.66519082e-07
-1.7530875e-10
6.66574602e-07
-3.65185296e-10
6.66692294e-07
-5.90440511e-10
6.66878167e-07
-8.29132294e-10
6.67128068e-07
-1.04445649e-09
6.67425909e-07
-1.19305602e-09
6.67745353e-07
-1.23776148e-09
6.68054333e-07
-1.15874439e-09
6.68321016e-07
-9.5850372e-10
6.68519756e-07
-6.59765865e-10
6.68636237e-07
-2.98567341e-10
6.68666404e-07
8.16201596e-11
6.68615201e-07
4.4270264e-10
6.6849676e-07
7.541528e-10
6.68325923e-07
9.93726606e-10
6.68119016e-07
1.1491398e-09
6.67892978e-07
1.21706939e-09
6.67663655e-07
1.20256446e-09
6.67444713e-07
1.11764795e-09
6.67248961e-07
9.78385598e-10
6.67085837e-07
8.07971262e-10
6.66959671e-07
6.3452634e-10
6.6686736e-07
4.9020247e-10
6.667966e-07
4.08490618e-10
6.66726008e-07
4.19056196e-10
6.66628166e-07
5.41070886e-10
6.66474725e-07
7.7745012e-10
6.66241609e-07
1.11237696e-09
6.65913193e-07
1.51341243e-09
6.65484661e-07
1.9382516e-09
6.64961886e-07
2.34442619e-09
6.64358836e-07
2.69901771e-09
6.63693303e-07
2.98526381e-09
6.6298232e-07
3.20395597e-09
6.62238694e-07
3.36949389e-09
6.61469529e-07
3.5025172e-09
6.60676818e-07
3.62219962e-09
6.59859405e-07
3.74101024e-09
6.59015291e-07
3.86325603e-09
6.58143355e-07
3.98689105e-09
6.57244115e-07
4.10686045e-09
6.56319619e-07
4.21813034e-09
6.55372894e-07
4.3173163e-09
6.54407385e-07
4.40283962e-09
6.53426611e-07
4.4742239e-09
6.5243408e-07
4.53126536e-09
6.51433352e-07
4.57353481e-09
6.50428128e-07
4.60028424e-09
6.49422302e-07
4.61059795e-09
6.48419946e-07
4.60358703e-09
6.47425273e-07
4.57851137e-09
6.4644258e-07
4.53481453e-09
6.45476207e-07
4.47210808e-09
6.44530494e-07
4.39014894e-09
6.43609744e-07
4.28882659e-09
6.42718188e-07
4.16816193e-09
6.41859943e-07
4.02831024e-09
6.41038971e-07
3.86956378e-09
6.4025904e-07
3.69235157e-09
6.39523695e-07
3.497241e-09
6.3883624e-07
3.28493701e-09
6.38199736e-07
3.05628389e-09
6.37617021e-07
2.81226421e-09
6.37090735e-07
2.55398574e-09
6.36623359e-07
2.28267072e-09
6.36217236e-07
1.99963137e-09
6.35874601e-07
1.70623303e-09
6.35597658e-07
1.4038617e-09
6.35388697e-07
1.09385604e-09
6.35249785e-07
7.770448e-10
6.3518106e-07
4.54653004e-10
6.35177801e-07
1.30206171e-10
6.3524439e-07
-1.97617099e-10
6.35382845e-07
-5.24235861e-10
6.35592783e-07
-8.49111578e-10
6.3587314e-07
-1.17096785e-09
6.36222421e-07
-1.48785661e-09
6.36638871e-07
-1.7980892e-09
6.371203e-07
-2.0999478e-09
6.37664033e-07
-2.39157608e-09
6.38266933e-07
-2.67106445e-09
6.38925446e-07
-2.93650166e-09
6.39635639e-07
-3.18598909e-09
6.40393257e-07
-3.41768762e-09
6.41193776e-07
-3.62986974e-09
6.42032449e-07
-3.8209891e-09
6.42904349e-07
-3.98973289e-09
6.43804398e-07
-4.13506807e-09
6.44727404e-07
-4.25626139e-09
6.45668111e-07
-4.35289774e-09
6.46621258e-07
-4.4248814e-09
6.4758164e-07
-4.47242163e-09
6.48544178e-07
-4.49602573e-09
6.49503981e-07
-4.49648006e-09
6.50456401e-07
-4.47481872e-09
6.51397083e-07
-4.43230146e-09
6.52322008e-07
-4.3703804e-09
6.53227515e-07
-4.29065691e-09
6.54110332e-07
-4.19485124e-09
6.54967583e-07
-4.08475969e-09
6.55796795e-07
-3.96222144e-09
6.56595896e-07
-3.8290757e-09
6.57363209e-07
-3.68714015e-09
6.58097433e-07
-3.53817276e-09
6.58797631e-07
-3.38385555e-09
6.59463197e-07
-3.2257714e-09
6.6009384e-07
-3.06539259e-09
6.60689552e-07
-2.90406431e-09
6.6125058e-07
-2.74300281e-09
6.61777397e-07
-2.58329162e-09
6.62270676e-07
-2.42587768e-09
6.6273126e-07
-2.27157898e-09
6.63160134e-07
-2.12108973e-09
6.635584e-07
-1.97498429e-09
6.63927254e-07
-1.83372934e-09
6.6426796e-07
-1.6976925e-09
6.64581831e-07
-1.56714909e-09
6.64870213e-07
-1.44229504e-09
6.65134465e-07
-1.323255e-09
6.65375953e-07
-1.21009369e-09
6.65596029e-07
-1.10282343e-09
6.65796025e-07
-1.0014154e-09
6.65977234e-07
-9.05807265e-10
6.66140893e-07
-8.15907906e-10
6.66288174e-07
-7.31602729e-10
6.6642017e-07
-6.52754597e-10
6.66537899e-07
-5.79201045e-10
6.66642313e-07
-5.10750747e-10
6.66734312e-07
-4.47183454e-10
6.66814758e-07
-3.88253902e-10
6.66884476e-07
-3.33699268e-10
6.66944261e-07
-2.83246613e-10
6.66994877e-07
-2.36618596e-10
6.6703705e-07
-1.93537961e-10
6.67071482e-07
-1.53729927e-10
6.67098848e-07
-1.16924495e-10
6.67119812e-07
-8.2857424e-11
6.67135053e-07
-5.12715145e-11
6.67145494e-07
-2.19978397e-11
6.67151354e-07
4.65529134e-12
6.67152329e-07
2.96214156e-11
6.67149911e-07
5.25961741e-11
6.67144994e-07
7.3885946e-11
6.67138005e-07
9.35695485e-11
6.67129132e-07
1.11649176e-10
6.67118487e-07
1.28062317e-10
6.67106136e-07
1.42792759e-10
6.67092127e-07
1.55876869e-10
6.67076522e-07
1.67386523e-10
6.67059406e-07
1.77419418e-10
6.6704089e-07
1.86088755e-10
6.670211e-07
1.93513058e-10
6.67000176e-07
1.99809195e-10
6.66978262e-07
2.05087547e-10
6.66955499e-07
2.09448875e-10
6.66932023e-07
2.12983528e-10
6.66907961e-07
2.15771186e-10
6.66883428e-07
2.17881291e-10
6.6685853e-07
2.193735e-10
6.66833359e-07
2.2029961e-10
6.66807994e-07
2.20704495e-10
6.66782503e-07
2.20628032e-10
6.66756943e-07
2.20106292e-10
6.66731362e-07
2.19172971e-10
6.66705801e-07
2.17859925e-10
6.66680294e-07
2.16198093e-10
6.66654871e-07
2.14217757e-10
6.66629562e-07
2.11948205e-10
6.66604392e-07
2.09417904e-10
6.66579386e-07
2.06654284e-10
6.66554567e-07
2.03683332e-10
6.6652996e-07
2.00529011e-10
6.66505585e-07
1.9721306e-10
6.66481463e-07
1.93754914e-10
6.66457613e-07
1.90172015e-10
6.66434051e-07
1.86479678e-10
6.66410793e-07
1.82691374e-10
6.66387853e-07
1.78818534e-10
6.66365243e-07
1.74871354e-10
6.66342972e-07
1.70857813e-10
6.66321052e-07
1.66786884e-10
6.66299501e-07
1.62646394e-10
6.66278338e-07
1.58490883e-10
6.66257618e-07
1.54084489e-10
6.66237341e-07
1.50335126e-10
1.43140418e-10
6.6663821e-07
8.35838282e-11
6.66575871e-07
1.57901551e-10
6.66507714e-07
1.30743525e-10
6.66457811e-07
1.91916516e-11
6.66443856e-07
-1.61413273e-10
6.66485526e-07
-4.06965019e-10
6.6659986e-07
-7.04970252e-10
6.66797108e-07
-1.02665716e-09
6.67075769e-07
-1.32345545e-09
6.6741953e-07
-1.53719394e-09
6.67798402e-07
-1.6170236e-09
6.68173969e-07
-1.53468827e-09
6.68506848e-07
-1.29172188e-09
6.68764041e-07
-9.17232386e-10
6.68924048e-07
-4.58753857e-10
6.6897621e-07
2.92031302e-11
6.68920032e-07
4.98799506e-10
6.68772041e-07
9.02035802e-10
6.68554318e-07
1.21132863e-09
6.68292097e-07
1.41126272e-09
6.68009945e-07
1.49915364e-09
6.67730828e-07
1.48164362e-09
6.67475604e-07
1.37287861e-09
6.67260269e-07
1.19379594e-09
6.67096255e-07
9.72140599e-10
6.66988162e-07
7.42848145e-10
6.66931489e-07
5.47162254e-10
6.66911301e-07
4.29015757e-10
6.66902671e-07
4.2807164e-10
6.66873067e-07
5.71113637e-10
6.66786826e-07
8.64194896e-10
6.66611476e-07
1.2883098e-09
6.66324112e-07
1.80144879e-09
6.65915767e-07
2.34736228e-09
6.65392343e-07
2.86871327e-09
6.64771746e-07
3.3205724e-09
6.64078197e-07
3.67986141e-09
6.63335613e-07
3.94767561e-09
6.62562227e-07
4.14409388e-09
6.61768017e-07
4.29801691e-09
6.60955232e-07
4.43634298e-09
6.60121157e-07
4.57650912e-09
6.59261536e-07
4.72436107e-09
6.58373267e-07
4.87670079e-09
6.57455647e-07
5.02607318e-09
6.56510282e-07
5.16513437e-09
6.55540267e-07
5.28901031e-09
6.545493e-07
5.39551893e-09
6.5354113e-07
5.48413265e-09
6.52519404e-07
5.55474932e-09
6.51487762e-07
5.60694568e-09
6.50449993e-07
5.63982735e-09
6.49410117e-07
5.65224303e-09
6.48372394e-07
5.64306713e-09
6.47341265e-07
5.61137803e-09
6.46321282e-07
5.55650795e-09
6.45317045e-07
5.47801822e-09
6.44333161e-07
5.37566379e-09
6.43374193e-07
5.24937289e-09
6.42444631e-07
5.09924403e-09
6.41548847e-07
4.92554875e-09
6.40691061e-07
4.72873187e-09
6.39875311e-07
4.50940551e-09
6.39105429e-07
4.26834275e-09
6.38385031e-07
4.00646779e-09
6.37717504e-07
3.72485148e-09
6.37106007e-07
3.42470674e-09
6.36553468e-07
3.10737226e-09
6.36062584e-07
2.77430052e-09
6.35635827e-07
2.42703136e-09
6.35275436e-07
2.06716049e-09
6.34983409e-07
1.69631444e-09
6.34761435e-07
1.3161435e-09
6.346104e-07
9.28273548e-10
6.34531013e-07
5.34120936e-10
6.3452703e-07
1.34194074e-10
6.34596074e-07
-2.66801871e-10
6.34739342e-07
-6.67738701e-10
6.34956467e-07
-1.06660034e-09
6.35246778e-07
-1.46176137e-09
6.35609334e-07
-1.85100738e-09
6.36042581e-07
-2.2320421e-09
6.3654441e-07
-2.60258925e-09
6.37112209e-07
-2.96028978e-09
6.37742857e-07
-3.30272342e-09
6.38432729e-07
-3.62747818e-09
6.39177745e-07
-3.93219363e-09
6.39973408e-07
-4.21461949e-09
6.40814862e-07
-4.47266605e-09
6.41696942e-07
-4.70447481e-09
6.42614216e-07
-4.90847138e-09
6.43561052e-07
-5.08341659e-09
6.44531669e-07
-5.22843199e-09
6.45520213e-07
-5.34302793e-09
6.46520835e-07
-5.42711153e-09
6.47527765e-07
-5.4809739e-09
6.48535395e-07
-5.50528347e-09
6.49538352e-07
-5.50106194e-09
6.50531563e-07
-5.46964335e-09
6.51510311e-07
-5.41264365e-09
6.52470278e-07
-5.33191627e-09
6.53407582e-07
-5.22949616e-09
6.54318794e-07
-5.10755986e-09
6.55200952e-07
-4.96837095e-09
6.56051564e-07
-4.81423799e-09
6.56868596e-07
-4.64746122e-09
6.57650463e-07
-4.47030547e-09
6.58396002e-07
-4.28495333e-09
6.59104448e-07
-4.09348502e-09
6.59775404e-07
-3.89785046e-09
6.60408803e-07
-3.6998557e-09
6.61004878e-07
-3.50114393e-09
6.61564125e-07
-3.30319444e-09
6.62087265e-07
-3.10731935e-09
6.62575216e-07
-2.9146599e-09
6.63029058e-07
-2.72619647e-09
6.6345e-07
-2.54275515e-09
6.63839355e-07
-2.36501303e-09
6.64198515e-07
-2.19351339e-09
6.6452892e-07
-2.02867683e-09
6.64832045e-07
-1.87081021e-09
6.65109377e-07
-1.72012239e-09
6.65362399e-07
-1.57673391e-09
6.65592573e-07
-1.4406902e-09
6.65801331e-07
-1.3119704e-09
6.65990059e-07
-1.19050147e-09
6.6616009e-07
-1.07616913e-09
6.66312703e-07
-9.68825087e-10
6.66449113e-07
-8.68294016e-10
6.66570475e-07
-7.74374644e-10
6.66677875e-07
-6.8683842e-10
6.66772338e-07
-6.05430927e-10
6.66854831e-07
-5.29873781e-10
6.66926266e-07
-4.59868517e-10
6.66987509e-07
-3.95103855e-10
6.67039382e-07
-3.35262092e-10
6.67082662e-07
-2.80024533e-10
6.67118092e-07
-2.29077049e-10
6.67146385e-07
-1.82113515e-10
6.67168225e-07
-1.38838997e-10
6.67184283e-07
-9.89752933e-11
6.67195242e-07
-6.22779392e-11
6.67201805e-07
-2.85871554e-11
6.67204489e-07
1.99970408e-12
6.67203082e-07
3.10446054e-11
6.67198231e-07
5.74551248e-11
6.67190267e-07
8.18448299e-11
6.67179618e-07
1.04202694e-10
6.67166745e-07
1.24501276e-10
6.67151988e-07
1.42793253e-10
6.67135592e-07
1.59160443e-10
6.67117746e-07
1.73693742e-10
6.67098601e-07
1.86503378e-10
6.67078281e-07
1.97711982e-10
6.67056901e-07
2.07444189e-10
6.67034569e-07
2.1582291e-10
6.67011391e-07
2.22966489e-10
6.66987474e-07
2.28985864e-10
6.66962923e-07
2.33982856e-10
6.66937841e-07
2.38050486e-10
6.66912325e-07
2.41273429e-10
6.66886466e-07
2.43727595e-10
6.66860348e-07
2.45480079e-10
6.66834047e-07
2.46590622e-10
6.66807631e-07
2.4711204e-10
6.66781159e-07
2.47091915e-10
6.66754684e-07
2.46573541e-10
6.66728253e-07
2.45597243e-10
6.66701907e-07
2.44200752e-10
6.6667568e-07
2.42420114e-10
6.66649603e-07
2.40289926e-10
6.66623705e-07
2.37842976e-10
6.6659801e-07
2.35110462e-10
6.66572541e-07
2.32121891e-10
6.66547316e-07
2.28906941e-10
6.66522353e-07
2.25491834e-10
6.66497667e-07
2.2189939e-10
6.66473272e-07
2.18150193e-10
6.66449183e-07
2.1426282e-10
6.66425411e-07
2.10253724e-10
6.66401968e-07
2.06137511e-10
6.66378864e-07
2.01926497e-10
6.66356108e-07
1.97631388e-10
6.66333711e-07
1.93259648e-10
6.66311683e-07
1.88820861e-10
6.66290031e-07
1.84304675e-10
6.66268753e-07
1.79773291e-10
6.66247856e-07
1.74996205e-10
6.66227197e-07
1.70967384e-10
1.63535919e-10
6.66638844e-07
1.11319685e-10
6.6658073e-07
2.16063787e-10
6.66518458e-07
1.93047514e-10
6.66472041e-07
6.56002595e-11
6.66465274e-07
-1.54456432e-10
6.66513926e-07
-4.55362166e-10
6.66632935e-07
-8.23661048e-10
6.66831058e-07
-1.22441729e-09
6.67106331e-07
-1.5983283e-09
6.67443149e-07
-1.87358504e-09
6.67813195e-07
-1.98663513e-09
6.68180178e-07
-1.90124965e-09
6.68506613e-07
-1.61776681e-09
6.68760293e-07
-1.17056932e-09
6.68919145e-07
-6.17330524e-10
6.68971558e-07
-2.29167801e-11
6.68931967e-07
5.38498313e-10
6.68806959e-07
1.02716159e-09
6.68614623e-07
1.4037826e-09
6.68376191e-07
1.64977079e-09
6.68114783e-07
1.7605962e-09
6.67852446e-07
1.74398449e-09
6.67608622e-07
1.61667824e-09
6.67399512e-07
1.40284891e-09
6.672371e-07
1.13445156e-09
6.67127239e-07
8.5256065e-10
6.67067167e-07
6.07040807e-10
6.67043534e-07
4.52412828e-10
6.67032104e-07
4.39219031e-10
6.67000549e-07
6.02331489e-10
6.66913986e-07
9.50355503e-10
6.66741148e-07
1.46066684e-09
6.66459916e-07
2.08211485e-09
6.66061041e-07
2.74558373e-09
6.65549009e-07
3.38000383e-09
6.64939641e-07
3.92911056e-09
6.64255085e-07
4.36350416e-09
6.63517788e-07
4.68397869e-09
6.62745428e-07
4.91538582e-09
6.61948263e-07
5.09404223e-09
6.61129345e-07
5.2540532e-09
6.60286869e-07
5.41771415e-09
6.59417283e-07
5.59261561e-09
6.58517849e-07
5.77474736e-09
6.57587926e-07
5.95455618e-09
6.56629018e-07
6.1225569e-09
6.55644088e-07
6.27241391e-09
6.54636766e-07
6.4012802e-09
6.53610823e-07
6.50848888e-09
6.52569997e-07
6.59396792e-09
6.51518063e-07
6.65725891e-09
6.50458961e-07
6.69730354e-09
6.49396873e-07
6.71270752e-09
6.48336223e-07
6.70210157e-09
6.47281631e-07
6.66437243e-09
6.46237836e-07
6.59872914e-09
6.45209641e-07
6.50467182e-09
6.44201857e-07
6.38194518e-09
6.43219263e-07
6.23051147e-09
6.42266558e-07
6.05054631e-09
6.41348321e-07
5.84244213e-09
6.40468967e-07
5.60680851e-09
6.39632703e-07
5.34446359e-09
6.38843492e-07
5.05642229e-09
6.38105032e-07
4.7438757e-09
6.37420743e-07
4.40817049e-09
6.36793778e-07
4.05078543e-09
6.36227051e-07
3.67329908e-09
6.35723262e-07
3.2773763e-09
6.35284919e-07
2.86475149e-09
6.34914336e-07
2.43721207e-09
6.34613623e-07
1.99659152e-09
6.34384659e-07
1.54476961e-09
6.3422908e-07
1.08361527e-09
6.34147978e-07
6.15089444e-10
6.34140332e-07
1.41785385e-10
6.3420844e-07
-3.34843065e-10
6.34352621e-07
-8.11762682e-10
6.34573094e-07
-1.28681534e-09
6.34869204e-07
-1.7575133e-09
6.3523986e-07
-2.22121182e-09
6.35683511e-07
-2.67515431e-09
6.36198074e-07
-3.11652982e-09
6.36780936e-07
-3.54245073e-09
6.37428963e-07
-3.94997511e-09
6.38138503e-07
-4.3361755e-09
6.38905408e-07
-4.69819231e-09
6.39725059e-07
-5.03330589e-09
6.40592405e-07
-5.33899476e-09
6.41502012e-07
-5.61301763e-09
6.42448122e-07
-5.8534763e-09
6.43424725e-07
-6.05887899e-09
6.44425638e-07
-6.22817388e-09
6.45444591e-07
-6.36078615e-09
6.46475322e-07
-6.4566301e-09
6.47511667e-07
-6.51609489e-09
6.4854765e-07
-6.54003614e-09
6.49577563e-07
-6.52974511e-09
6.50596042e-07
-6.48689684e-09
6.51598123e-07
-6.41350991e-09
6.52579297e-07
-6.31188943e-09
6.53535537e-07
-6.18455617e-09
6.54463329e-07
-6.03419521e-09
6.55359674e-07
-5.86358775e-09
6.56222093e-07
-5.6755584e-09
6.57048607e-07
-5.47290998e-09
6.5783772e-07
-5.25838999e-09
6.58588393e-07
-5.03463454e-09
6.59300004e-07
-4.80414453e-09
6.59972318e-07
-4.56925314e-09
6.60605444e-07
-4.33211083e-09
6.61199793e-07
-4.09466431e-09
6.61756043e-07
-3.85865672e-09
6.62275095e-07
-3.6256251e-09
6.62758038e-07
-3.39689755e-09
6.63206114e-07
-3.17360617e-09
6.63620682e-07
-2.95669635e-09
6.64003193e-07
-2.74693428e-09
6.64355158e-07
-2.54492572e-09
6.6467813e-07
-2.35112993e-09
6.64973677e-07
-2.16587089e-09
6.65243366e-07
-1.98935711e-09
6.65488752e-07
-1.8216945e-09
6.65711362e-07
-1.6629034e-09
6.65912692e-07
-1.5129292e-09
6.66094195e-07
-1.37165649e-09
6.66257268e-07
-1.23891689e-09
6.66403243e-07
-1.11449403e-09
6.66533369e-07
-9.98133328e-10
6.66648813e-07
-8.89549842e-10
6.66750661e-07
-7.88434236e-10
6.66839925e-07
-6.94459613e-10
6.66917556e-07
-6.07284816e-10
6.66984449e-07
-5.26556899e-10
6.67041452e-07
-4.51916344e-10
6.67089366e-07
-3.83001166e-10
6.67128954e-07
-3.19450394e-10
6.67160935e-07
-2.60908563e-10
6.67185987e-07
-2.07028798e-10
6.6720475e-07
-1.5747551e-10
6.67217817e-07
-1.1192557e-10
6.67225711e-07
-7.0062171e-11
6.67228731e-07
-3.15044305e-11
6.67226525e-07
4.23912783e-12
6.67221789e-07
3.5806652e-11
6.67214139e-07
6.51263302e-11
6.67204137e-07
9.1877867e-11
6.67192146e-07
1.16231788e-10
6.6717833e-07
1.38358292e-10
6.67162809e-07
1.58356553e-10
6.67145711e-07
1.76299535e-10
6.67127157e-07
1.92285544e-10
6.67107263e-07
2.06430889e-10
6.6708615e-07
2.1885489e-10
6.67063941e-07
2.29677346e-10
6.67040767e-07
2.39018563e-10
6.67016754e-07
2.46996219e-10
6.6699203e-07
2.53723574e-10
6.66966718e-07
2.59307057e-10
6.66940931e-07
2.6384682e-10
6.66914772e-07
2.67439204e-10
6.66888335e-07
2.70170602e-10
6.66861701e-07
2.72117777e-10
6.66834944e-07
2.73349984e-10
6.66808129e-07
2.73929422e-10
6.66781309e-07
2.73912681e-10
6.66754531e-07
2.73351257e-10
6.66727834e-07
2.72292556e-10
6.66701253e-07
2.7078007e-10
6.66674816e-07
2.6885434e-10
6.66648549e-07
2.66553374e-10
6.66622475e-07
2.63912526e-10
6.66596616e-07
2.60965117e-10
6.66570989e-07
2.57742587e-10
6.66545616e-07
2.54274275e-10
6.66520513e-07
2.50587195e-10
6.66495699e-07
2.46706076e-10
6.66471188e-07
2.42653271e-10
6.66446993e-07
2.38449115e-10
6.66423126e-07
2.34111626e-10
6.66399598e-07
2.29656824e-10
6.66376416e-07
2.25098287e-10
6.66353589e-07
2.20447925e-10
6.66331124e-07
2.15714456e-10
6.66309025e-07
2.10908707e-10
6.66287299e-07
2.06020417e-10
6.66265953e-07
2.01105601e-10
6.66245022e-07
1.95922722e-10
6.66224545e-07
1.91400549e-10
1.83203107e-10
6.66635809e-07
1.42099109e-10
6.66569968e-07
2.81968896e-10
6.66497858e-07
2.65173336e-10
6.66446369e-07
1.17042948e-10
6.66432026e-07
-1.40358557e-10
6.66476749e-07
-5.00316274e-10
6.66598601e-07
-9.45780275e-10
6.66808584e-07
-1.43470157e-09
6.67105581e-07
-1.89565215e-09
6.67473208e-07
-2.24155523e-09
6.67880666e-07
-2.39443777e-09
6.6828782e-07
-2.30873951e-09
6.68652793e-07
-1.98305171e-09
6.68939596e-07
-1.45765376e-09
6.69123736e-07
-8.01710391e-10
6.69197859e-07
-9.71836584e-11
6.69154407e-07
5.81879371e-10
6.69013782e-07
1.16773127e-09
6.68798006e-07
1.61952243e-09
6.6853346e-07
1.91432442e-09
6.68246659e-07
2.04744254e-09
6.67962901e-07
2.02781131e-09
6.67705035e-07
1.87462962e-09
6.67492034e-07
1.61594717e-09
6.67337162e-07
1.28943564e-09
6.6724579e-07
9.44064451e-10
6.67213228e-07
6.39754443e-10
6.67223602e-07
4.42216924e-10
6.67250596e-07
4.12436093e-10
6.67259832e-07
5.93344974e-10
6.67213132e-07
9.97352414e-10
6.6707511e-07
1.59903976e-09
6.66820072e-07
2.33755857e-09
6.66436855e-07
3.12926167e-09
6.65930019e-07
3.88735595e-09
6.65317069e-07
4.54263046e-09
6.64622691e-07
5.05850712e-09
6.63871919e-07
5.43543014e-09
6.63084447e-07
5.70359092e-09
6.62271691e-07
5.90758236e-09
6.61437025e-07
6.08955267e-09
6.60578365e-07
6.27725316e-09
6.59691599e-07
6.48030452e-09
6.58773405e-07
6.69390255e-09
6.57822702e-07
6.90625555e-09
6.56840737e-07
7.10555024e-09
6.55830376e-07
7.28383098e-09
6.54795253e-07
7.43748143e-09
6.53739202e-07
7.56563608e-09
6.52666064e-07
7.66821643e-09
6.51579744e-07
7.74469651e-09
6.50484351e-07
7.79381769e-09
6.49384275e-07
7.81390318e-09
6.48284188e-07
7.80330224e-09
6.47188983e-07
7.760679e-09
6.46103699e-07
7.68509794e-09
6.45033448e-07
7.57598725e-09
6.43983349e-07
7.43308127e-09
6.42958481e-07
7.2563856e-09
6.41963829e-07
7.04616907e-09
6.41004239e-07
6.80296353e-09
6.40084376e-07
6.52755752e-09
6.39208702e-07
6.22097665e-09
6.38381452e-07
5.88445984e-09
6.37606633e-07
5.51943006e-09
6.36888009e-07
5.12747506e-09
6.36229087e-07
4.71033264e-09
6.35633093e-07
4.26986364e-09
6.35102947e-07
3.80803537e-09
6.34641265e-07
3.32688948e-09
6.34250363e-07
2.82850851e-09
6.33932284e-07
2.31500127e-09
6.3368882e-07
1.78849797e-09
6.33521465e-07
1.25116332e-09
6.33431438e-07
7.05237335e-10
6.33420194e-07
1.53079389e-10
6.33488206e-07
-4.02883649e-10
6.33635838e-07
-9.59492274e-10
6.33863071e-07
-1.51422004e-09
6.34169545e-07
-2.06423334e-09
6.34554489e-07
-2.60647042e-09
6.3501661e-07
-3.13765619e-09
6.35554021e-07
-3.65438257e-09
6.36164213e-07
-4.15314344e-09
6.36844051e-07
-4.63036638e-09
6.37589759e-07
-5.08248768e-09
6.38396941e-07
-5.50602512e-09
6.39260615e-07
-5.89767404e-09
6.40175268e-07
-6.25438057e-09
6.41134921e-07
-6.57343853e-09
6.42133208e-07
-6.8525633e-09
6.43163469e-07
-7.08996619e-09
6.4421884e-07
-7.28439505e-09
6.45292365e-07
-7.43517985e-09
6.46377101e-07
-7.54224926e-09
6.47466229e-07
-7.60611537e-09
6.48553157e-07
-7.62786292e-09
6.49631622e-07
-7.60911006e-09
6.5069577e-07
-7.55194273e-09
6.51740231e-07
-7.45886141e-09
6.52760169e-07
-7.33270784e-09
6.53751321e-07
-7.17657587e-09
6.54710021e-07
-6.9937455e-09
6.556332e-07
-6.78759825e-09
6.56518383e-07
-6.5615516e-09
6.57363667e-07
-6.31898005e-09
6.5816769e-07
-6.06317412e-09
6.58929596e-07
-5.7972743e-09
6.59648989e-07
-5.52424326e-09
6.60325887e-07
-5.24682884e-09
6.60960677e-07
-4.96754781e-09
6.61554058e-07
-4.68866342e-09
6.62107002e-07
-4.41218768e-09
6.62620699e-07
-4.13988099e-09
6.63096525e-07
-3.87325139e-09
6.63535991e-07
-3.61357181e-09
6.63940716e-07
-3.36189277e-09
6.6431239e-07
-3.11905279e-09
6.64652749e-07
-2.88570182e-09
6.64963546e-07
-2.66231901e-09
6.65246534e-07
-2.44922712e-09
6.65503448e-07
-2.24661558e-09
6.65735984e-07
-2.05455432e-09
6.65945789e-07
-1.87301124e-09
6.6613444e-07
-1.70186356e-09
6.66303434e-07
-1.54091715e-09
6.6645419e-07
-1.3899231e-09
6.66588049e-07
-1.24859044e-09
6.66706289e-07
-1.11659812e-09
6.66810124e-07
-9.93598637e-10
6.66900706e-07
-8.79218403e-10
6.66979117e-07
-7.73062725e-10
6.67046371e-07
-6.74720692e-10
6.67103414e-07
-5.83770332e-10
6.67151122e-07
-4.99786457e-10
6.67190315e-07
-4.22346065e-10
6.67221754e-07
-3.51032149e-10
6.67246148e-07
-2.85438461e-10
6.67264164e-07
-2.25173176e-10
6.67276426e-07
-1.6986236e-10
6.67283536e-07
-1.19157481e-10
6.67286106e-07
-7.27572929e-11
6.6728497e-07
-3.04969429e-11
6.67281396e-07
7.76492427e-12
6.67273405e-07
4.3760683e-11
6.67262342e-07
7.61626596e-11
6.67248545e-07
1.05644731e-10
6.67232354e-07
1.32387832e-10
6.67214172e-07
1.56505784e-10
6.67194383e-07
1.78115456e-10
6.67173272e-07
1.97384625e-10
6.6715104e-07
2.144974e-10
6.67127826e-07
2.29629978e-10
6.67103742e-07
2.42929531e-10
6.67078895e-07
2.54519712e-10
6.67053385e-07
2.64526632e-10
6.67027309e-07
2.73075109e-10
6.67000752e-07
2.80285134e-10
6.66973797e-07
2.86269301e-10
6.66946519e-07
2.91132872e-10
6.66918995e-07
2.9497382e-10
6.66891294e-07
2.97882166e-10
6.66863485e-07
2.99939571e-10
6.66835626e-07
3.01220632e-10
6.66807776e-07
3.01792803e-10
6.66779984e-07
3.01717802e-10
6.66752297e-07
3.01052158e-10
6.66724756e-07
2.99848295e-10
6.66697395e-07
2.98154637e-10
6.66670247e-07
2.96016529e-10
6.66643339e-07
2.93476512e-10
6.66616692e-07
2.9057402e-10
6.66590327e-07
2.87345922e-10
6.66564258e-07
2.83826573e-10
6.665385e-07
2.80047478e-10
6.66513065e-07
2.76037655e-10
6.66487963e-07
2.71823553e-10
6.66463203e-07
2.67428775e-10
6.66438793e-07
2.62874746e-10
6.6641474e-07
2.58180505e-10
6.66391049e-07
2.53363084e-10
6.66367726e-07
2.4843702e-10
6.66344774e-07
2.4341527e-10
6.66322196e-07
2.38307495e-10
6.66299993e-07
2.33126397e-10
6.66278166e-07
2.27863196e-10
6.66256697e-07
2.22586247e-10
6.66235576e-07
2.17065257e-10
6.66214608e-07
2.1234588e-10
2.04059164e-10
6.66637028e-07
1.71557613e-10
6.66572933e-07
3.46154567e-10
6.66501941e-07
3.36241579e-10
6.66447061e-07
1.71945731e-10
6.66434375e-07
-1.27508185e-10
6.66483124e-07
-5.48913907e-10
6.66610075e-07
-1.07255587e-09
6.66825422e-07
-1.64986533e-09
6.67127753e-07
-2.19779092e-09
6.6750078e-07
-2.6143851e-09
6.67914174e-07
-2.80763482e-09
6.68328516e-07
-2.72289546e-09
6.6870259e-07
-2.35695518e-09
6.69000596e-07
-1.7555104e-09
6.69197479e-07
-9.98466892e-10
6.6928067e-07
-1.80272989e-10
6.69254839e-07
6.07738767e-10
6.69131353e-07
1.29120524e-09
6.6893139e-07
1.81943904e-09
6.68680212e-07
2.16542554e-09
6.684045e-07
2.32305308e-09
6.68129982e-07
2.30221434e-09
6.67879832e-07
2.12465905e-09
6.67673379e-07
1.82227701e-09
6.67524569e-07
1.43812513e-09
6.67439918e-07
1.02859614e-09
6.67416197e-07
6.63353984e-10
6.67438459e-07
4.198246e-10
6.67479607e-07
3.71136652e-10
6.67503502e-07
5.69273798e-10
6.67471077e-07
1.02956983e-09
6.67346902e-07
1.72297204e-09
6.67105254e-07
2.57892951e-09
6.66734451e-07
3.49975615e-09
6.66238127e-07
4.38334018e-09
6.65632839e-07
5.14754934e-09
6.64942621e-07
5.74832447e-09
6.64192292e-07
6.1853285e-09
6.63401688e-07
6.49373273e-09
6.62582544e-07
6.72623344e-09
6.61738536e-07
6.93303752e-09
6.6086776e-07
7.14747668e-09
6.59966148e-07
7.38133687e-09
6.59030344e-07
7.62910096e-09
6.58059222e-07
7.8767505e-09
6.57054018e-07
8.11010658e-09
6.56017647e-07
8.31953731e-09
6.54953844e-07
8.50060449e-09
6.53866587e-07
8.65220238e-09
6.52759893e-07
8.77421187e-09
6.51637879e-07
8.86600706e-09
6.50504895e-07
8.92609571e-09
6.49365607e-07
8.95248553e-09
6.48224995e-07
8.94321416e-09
6.47088283e-07
8.89669761e-09
6.45960863e-07
8.8118355e-09
6.44848214e-07
8.68796829e-09
6.43755835e-07
8.5248075e-09
6.42689196e-07
8.32239251e-09
6.41653677e-07
8.08107958e-09
6.40654515e-07
7.80154214e-09
6.39696752e-07
7.4847657e-09
6.38785176e-07
7.13202924e-09
6.37924267e-07
6.74487968e-09
6.37118151e-07
6.3250903e-09
6.3637059e-07
5.87461505e-09
6.35684997e-07
5.39553869e-09
6.35064484e-07
4.89002132e-09
6.34511918e-07
4.36027782e-09
6.34029953e-07
3.80856384e-09
6.33621037e-07
3.23716755e-09
6.33287393e-07
2.64842411e-09
6.33030975e-07
2.04473366e-09
6.32853439e-07
1.42855801e-09
6.32756177e-07
8.02398747e-10
6.3274026e-07
1.68940331e-10
6.32806674e-07
-4.69309021e-10
6.32956396e-07
-1.10918193e-09
6.33189741e-07
-1.74748603e-09
6.33506467e-07
-2.38083421e-09
6.33905812e-07
-3.0056493e-09
6.34386496e-07
-3.61813592e-09
6.34946652e-07
-4.21429987e-09
6.35583779e-07
-4.7899995e-09
6.36294709e-07
-5.34099598e-09
6.37075585e-07
-5.86303654e-09
6.37921854e-07
-6.35194206e-09
6.38828284e-07
-6.80372802e-09
6.39789e-07
-7.21469935e-09
6.40797551e-07
-7.58157272e-09
6.41846995e-07
-7.90157311e-09
6.42930009e-07
-8.17253041e-09
6.44039012e-07
-8.39293436e-09
6.451663e-07
-8.56199179e-09
6.46304183e-07
-8.67964693e-09
6.47445122e-07
-8.74656209e-09
6.48581858e-07
-8.76410075e-09
6.49707525e-07
-8.73427604e-09
6.50815753e-07
-8.6596671e-09
6.51900742e-07
-8.54334871e-09
6.52957331e-07
-8.38879752e-09
6.53981031e-07
-8.19978029e-09
6.54968044e-07
-7.98026959e-09
6.55915266e-07
-7.73433936e-09
6.5682027e-07
-7.46608379e-09
6.57681274e-07
-7.1795227e-09
6.58497101e-07
-6.87855171e-09
6.59267129e-07
-6.5668656e-09
6.59991235e-07
-6.24792657e-09
6.60669737e-07
-5.92492338e-09
6.61303337e-07
-5.600755e-09
6.61893058e-07
-5.27800799e-09
6.62440193e-07
-4.95896217e-09
6.62946249e-07
-4.64559337e-09
6.634129e-07
-4.33957569e-09
6.63841943e-07
-4.04230423e-09
6.64235256e-07
-3.75491239e-09
6.64594767e-07
-3.47828663e-09
6.64922422e-07
-3.21309503e-09
6.65220157e-07
-2.95980897e-09
6.65489882e-07
-2.71872085e-09
6.65733454e-07
-2.48997228e-09
6.65952675e-07
-2.27357381e-09
6.66149282e-07
-2.06943009e-09
6.66324949e-07
-1.87735608e-09
6.66481291e-07
-1.69709527e-09
6.66619849e-07
-1.52832781e-09
6.66742078e-07
-1.37067509e-09
6.66849331e-07
-1.22371281e-09
6.66942849e-07
-1.08698427e-09
6.67023769e-07
-9.6001253e-10
6.67093141e-07
-8.42312668e-10
6.67151933e-07
-7.33397234e-10
6.67201052e-07
-6.32778582e-10
6.67241343e-07
-5.39972783e-10
6.67273601e-07
-4.54502954e-10
6.67298566e-07
-3.75901902e-10
6.67316937e-07
-3.03716239e-10
6.67329363e-07
-2.37509027e-10
6.67336453e-07
-1.76861883e-10
6.67338763e-07
-1.21374054e-10
6.67336748e-07
-7.06410979e-11
6.67330507e-07
-2.41391539e-11
6.67320031e-07
1.82865021e-11
6.67307543e-07
5.62798665e-11
6.67292719e-07
9.10082254e-11
6.67275903e-07
1.22482083e-10
6.6725733e-07
1.5098189e-10
6.67237141e-07
1.76711341e-10
6.6721548e-07
1.9978717e-10
6.67192506e-07
2.20363443e-10
6.67168383e-07
2.38619197e-10
6.67143281e-07
2.54726336e-10
6.67117356e-07
2.68844459e-10
6.67090741e-07
2.81122474e-10
6.6706355e-07
2.91702487e-10
6.67035888e-07
3.0071954e-10
6.67007853e-07
3.08301388e-10
6.66979534e-07
3.14567857e-10
6.66951015e-07
3.19631276e-10
6.66922372e-07
3.23596222e-10
6.66893673e-07
3.26559649e-10
6.66864981e-07
3.28610426e-10
6.66836349e-07
3.29830642e-10
6.66807825e-07
3.30295229e-10
6.66779449e-07
3.30073044e-10
6.66751253e-07
3.29226998e-10
6.66723265e-07
3.27814883e-10
6.6669551e-07
3.25889312e-10
6.66668007e-07
3.23498761e-10
6.66640776e-07
3.20688054e-10
6.66613831e-07
3.17498302e-10
6.66587189e-07
3.13967749e-10
6.66560864e-07
3.10132009e-10
6.66534868e-07
3.06023741e-10
6.66509213e-07
3.01673192e-10
6.66483909e-07
2.97108197e-10
6.66458965e-07
2.92353797e-10
6.66434388e-07
2.87432863e-10
6.66410184e-07
2.82365841e-10
6.66386358e-07
2.77171155e-10
6.66362913e-07
2.71864666e-10
6.6633985e-07
2.66460642e-10
6.6631717e-07
2.60970017e-10
6.66294873e-07
2.55406605e-10
6.66272959e-07
2.49762247e-10
6.66251427e-07
2.44099841e-10
6.66230304e-07
2.38179737e-10
6.66209646e-07
2.32955776e-10
2.23897997e-10
6.66635335e-07
2.0280872e-10
6.66568167e-07
4.13398388e-10
6.66494528e-07
4.09917781e-10
6.66440938e-07
2.2550366e-10
6.66428522e-07
-1.15194538e-10
6.66479457e-07
-5.99913423e-10
6.66612377e-07
-1.20554512e-09
6.66838533e-07
-1.87610159e-09
6.67156718e-07
-2.51606224e-09
6.67550002e-07
-3.00775722e-09
6.67986605e-07
-3.24432166e-09
6.68425153e-07
-3.16152065e-09
6.68822352e-07
-2.75422081e-09
6.69140524e-07
-2.07373313e-09
6.69353151e-07
-1.21113032e-09
6.69447676e-07
-2.7483196e-10
6.69427589e-07