/*--------------------------------*- C++ -*----------------------------------*\
| =========                 |                                                 |
| \\      /  F ield         | OpenFOAM: The Open Source CFD Toolbox           |
|  \\    /   O peration     | Version:  v2012                                 |
|   \\  /    A nd           | Website:  www.openfoam.com                      |
|    \\/     M anipulation  |                                                 |
\*---------------------------------------------------------------------------*/
FoamFile
{
    version     2.0;
    format      ascii;
    class       volScalarField;
    location    "2.09";
    object      rAU;
}
// * * * * * * * * * * * * * * * * * * * * * * * * * * * * * * * * * * * * * //

dimensions      [0 0 1 0 0 0 0];


internalField   nonuniform List<scalar> 
28416
(
0.000492973795
0.000492981006
0.000492981684
0.000492981977
0.000492981243
0.00049298001
0.000492978237
0.000492975989
0.000492973461
0.000492970954
0.000492968801
0.000492967294
0.000492966617
0.000492966827
0.000492967856
0.000492967548
0.000492963843
0.000492961099
0.000492959499
0.000492959082
0.000492959778
0.000492961433
0.000492963821
0.000492966662
0.00049296963
0.000492972371
0.00049297455
0.00049297588
0.000492976181
0.000492975423
0.000492973756
0.000492971503
0.000492969121
0.000492967104
0.000492965882
0.000492965729
0.000492966717
0.000492968733
0.000492971541
0.000492974873
0.000492978507
0.000492982314
0.000492986258
0.000492990368
0.000492994693
0.000492999275
0.000493004129
0.000493009252
0.000493014628
0.000493020236
0.000493026059
0.000493032083
0.000493038293
0.000493044674
0.000493051207
0.000493057873
0.000493064648
0.000493071508
0.000493078428
0.000493085381
0.00049309234
0.000493099277
0.000493106165
0.000493112975
0.000493119679
0.000493126248
0.000493132656
0.00049313887
0.00049314486
0.000493150599
0.000493156054
0.000493161193
0.000493165987
0.000493170411
0.000493174462
0.000493178158
0.000493178485
0.000493176003
0.000493173079
0.000493169724
0.000493165957
0.000493161798
0.000493157268
0.000493152394
0.000493147204
0.00049314173
0.000493136006
0.000493130071
0.000493123959
0.00049311771
0.000493111362
0.000493104953
0.00049309852
0.000493092096
0.000493085717
0.000493079414
0.000493073216
0.000493067152
0.000493061244
0.000493055514
0.000493049982
0.00049304466
0.000493039562
0.000493034697
0.000493030073
0.00049302569
0.000493021555
0.000493017663
0.000493014013
0.0004930106
0.000493007422
0.000493004468
0.000493001732
0.000492999208
0.000492996884
0.00049299475
0.0004929928
0.000492991021
0.000492989403
0.000492987939
0.000492986617
0.000492985428
0.000492984362
0.000492983412
0.000492982568
0.000492981821
0.000492981165
0.000492980591
0.000492980092
0.000492979662
0.000492979295
0.000492978984
0.000492978728
0.00049297852
0.000492978357
0.000492978237
0.000492978154
0.000492978107
0.000492978093
0.000492978108
0.00049297815
0.000492978217
0.000492978306
0.000492978242
0.000492977953
0.000492977701
0.00049297748
0.000492977288
0.00049297713
0.000492977001
0.000492976904
0.000492976839
0.000492976802
0.000492976793
0.00049297681
0.000492976849
0.000492976908
0.000492976987
0.000492977081
0.000492977189
0.000492977308
0.00049297744
0.000492977579
0.000492977729
0.000492977885
0.000492978047
0.000492978214
0.000492978388
0.000492978565
0.000492978746
0.000492978931
0.000492979118
0.000492979307
0.000492979499
0.000492979692
0.000492979884
0.000492980079
0.000492980272
0.000492980466
0.000492980658
0.000492980851
0.000492981043
0.000492981232
0.000492981421
0.000492981608
0.000492981793
0.000492981977
0.00049298216
0.000492982331
0.000492989791
0.000492968321
0.000492975504
0.00049297611
0.000492976929
0.000492976213
0.00049297475
0.000492972606
0.000492969856
0.000492966743
0.000492963645
0.000492960983
0.000492959125
0.000492958299
0.00049295857
0.000492959845
0.00049296117
0.000492958576
0.000492956978
0.000492956411
0.000492956811
0.00049295804
0.000492959913
0.000492962207
0.000492964691
0.000492967118
0.000492969239
0.000492970823
0.000492971687
0.00049297174
0.00049297102
0.000492969714
0.000492968147
0.000492966729
0.000492965869
0.000492965891
0.000492966963
0.000492969077
0.000492972073
0.000492975711
0.000492979745
0.000492983993
0.000492988364
0.000492992847
0.000492997483
0.000493002322
0.000493007402
0.000493012733
0.000493018305
0.000493024098
0.000493030089
0.000493036259
0.00049304259
0.000493049062
0.000493055657
0.000493062352
0.000493069122
0.000493075943
0.000493082785
0.000493089621
0.000493096422
0.000493103159
0.000493109802
0.000493116321
0.000493122689
0.000493128876
0.000493134853
0.000493140595
0.000493146074
0.000493151262
0.000493156137
0.000493160672
0.000493164845
0.000493168637
0.000493172029
0.000493175009
0.000493177551
0.000493176674
0.000493173708
0.000493170289
0.000493166428
0.000493162142
0.000493157454
0.000493152387
0.000493146968
0.00049314123
0.000493135209
0.00049312894
0.000493122466
0.000493115827
0.000493109064
0.000493102221
0.000493095341
0.000493088463
0.000493081627
0.000493074872
0.000493068231
0.000493061735
0.000493055418
0.0004930493
0.000493043404
0.000493037751
0.000493032352
0.000493027219
0.000493022359
0.000493017777
0.000493013471
0.000493009445
0.00049300569
0.000493002203
0.000492998975
0.000492995999
0.000492993264
0.000492990758
0.000492988472
0.000492986393
0.000492984508
0.000492982807
0.000492981277
0.000492979905
0.000492978684
0.000492977598
0.000492976639
0.000492975796
0.000492975061
0.000492974423
0.000492973873
0.000492973406
0.000492973012
0.000492972684
0.000492972417
0.000492972205
0.00049297204
0.000492971922
0.000492971844
0.000492971802
0.000492971794
0.000492971815
0.000492971863
0.000492971936
0.000492972031
0.000492972144
0.000492972274
0.000492972418
0.000492972523
0.00049297235
0.000492972214
0.000492972111
0.000492972037
0.000492971991
0.000492971969
0.000492971969
0.00049297199
0.00049297203
0.000492972087
0.000492972161
0.000492972249
0.00049297235
0.000492972463
0.000492972586
0.000492972719
0.000492972859
0.000492973007
0.000492973159
0.000492973319
0.000492973482
0.000492973649
0.000492973818
0.000492973991
0.000492974166
0.000492974342
0.00049297452
0.000492974698
0.000492974877
0.000492975057
0.000492975236
0.000492975414
0.000492975592
0.00049297577
0.000492975946
0.00049297612
0.000492976294
0.000492976466
0.000492976636
0.000492976805
0.000492976972
0.000492977136
0.000492977299
0.000492977461
0.000492977615
0.000492985042
0.00049296814
0.000492975106
0.000492975651
0.000492976749
0.000492976164
0.000492974306
0.000492971674
0.000492968396
0.000492964793
0.00049296133
0.000492958504
0.000492956723
0.000492956209
0.00049295698
0.000492958874
0.000492961412
0.000492958247
0.000492955966
0.000492954816
0.000492954778
0.000492955733
0.000492957496
0.000492959836
0.0004929625
0.000492965212
0.000492967675
0.000492969594
0.000492970708
0.000492970854
0.000492970017
0.000492968365
0.000492966238
0.000492964097
0.000492962437
0.000492961675
0.000492962065
0.00049296365
0.000492966282
0.000492969693
0.00049297359
0.00049297774
0.000492982015
0.00049298639
0.000492990908
0.000492995633
0.000493000616
0.000493005877
0.000493011411
0.000493017199
0.000493023217
0.000493029445
0.000493035864
0.000493042458
0.000493049206
0.000493056087
0.000493063076
0.000493070145
0.000493077267
0.000493084411
0.000493091546
0.000493098641
0.000493105665
0.000493112585
0.000493119371
0.000493125991
0.000493132416
0.000493138617
0.000493144564
0.00049315023
0.000493155591
0.000493160617
0.000493165285
0.000493169573
0.000493173456
0.000493176916
0.000493179944
0.000493178678
0.000493175239
0.000493171333
0.000493166974
0.000493162182
0.000493156983
0.000493151403
0.000493145474
0.000493139231
0.000493132713
0.000493125959
0.000493119015
0.000493111924
0.000493104732
0.000493097486
0.000493090233
0.000493083015
0.000493075874
0.000493068854
0.000493061988
0.000493055311
0.000493048853
0.000493042638
0.000493036687
0.000493031019
0.000493025644
0.000493020572
0.000493015805
0.000493011348
0.000493007195
0.000493003344
0.000492999786
0.000492996513
0.000492993513
0.000492990775
0.000492988286
0.000492986031
0.000492983998
0.000492982172
0.000492980538
0.000492979084
0.000492977796
0.00049297666
0.000492975666
0.0004929748
0.000492974052
0.00049297341
0.000492972866
0.000492972409
0.000492972031
0.000492971725
0.000492971483
0.000492971296
0.000492971161
0.000492971072
0.000492971022
0.00049297101
0.000492971029
0.000492971078
0.000492971154
0.000492971252
0.000492971371
0.00049297151
0.000492971664
0.000492971833
0.000492972014
0.000492972208
0.000492972371
0.000492972203
0.000492972067
0.000492971961
0.000492971883
0.000492971832
0.000492971804
0.000492971798
0.000492971815
0.000492971851
0.000492971905
0.000492971978
0.000492972065
0.000492972165
0.00049297228
0.000492972404
0.000492972538
0.000492972679
0.000492972829
0.000492972984
0.000492973145
0.000492973311
0.00049297348
0.000492973651
0.000492973827
0.000492974003
0.000492974181
0.000492974362
0.000492974543
0.000492974723
0.000492974906
0.000492975087
0.000492975268
0.000492975449
0.000492975629
0.000492975808
0.000492975985
0.000492976162
0.000492976336
0.000492976509
0.000492976681
0.00049297685
0.000492977017
0.000492977183
0.000492977347
0.000492977504
0.000492984931
0.000492967963
0.000492974758
0.000492975327
0.000492976589
0.000492976413
0.00049297423
0.000492971136
0.000492967285
0.000492963059
0.000492959016
0.000492955747
0.000492953734
0.000492953234
0.000492954257
0.00049295659
0.000492959874
0.000492956567
0.000492953775
0.000492952301
0.000492952121
0.000492953098
0.000492955016
0.000492957608
0.000492960579
0.00049296361
0.000492966356
0.00049296847
0.000492969639
0.000492969646
0.000492968439
0.000492966181
0.000492963258
0.000492960216
0.00049295765
0.000492956079
0.000492955824
0.00049295696
0.000492959323
0.0004929626
0.000492966436
0.000492970547
0.000492974772
0.000492979078
0.000492983516
0.000492988168
0.000492993099
0.000492998341
0.000493003895
0.00049300974
0.000493015854
0.000493022216
0.000493028807
0.000493035611
0.000493042607
0.000493049775
0.000493057088
0.000493064517
0.000493072032
0.000493079601
0.000493087191
0.000493094768
0.000493102297
0.000493109744
0.000493117075
0.000493124255
0.000493131249
0.000493138028
0.000493144556
0.000493150803
0.000493156742
0.000493162343
0.000493167579
0.000493172428
0.000493176865
0.000493180868
0.000493184415
0.000493182784
0.000493178843
0.000493174414
0.000493169512
0.00049316416
0.000493158385
0.000493152214
0.000493145682
0.000493138828
0.000493131694
0.000493124325
0.000493116772
0.000493109082
0.00049310131
0.000493093505
0.000493085722
0.000493078008
0.000493070411
0.000493062977
0.000493055744
0.000493048748
0.000493042024
0.000493035594
0.00049302948
0.0004930237
0.000493018263
0.000493013175
0.000493008438
0.000493004052
0.000493000007
0.000492996298
0.000492992912
0.000492989836
0.000492987055
0.000492984554
0.000492982315
0.00049298032
0.000492978556
0.000492977002
0.000492975642
0.000492974461
0.000492973443
0.000492972573
0.000492971838
0.000492971223
0.000492970718
0.00049297031
0.00049296999
0.000492969747
0.000492969573
0.00049296946
0.000492969401
0.000492969389
0.00049296942
0.000492969487
0.000492969584
0.000492969711
0.00049296986
0.000492970029
0.000492970217
0.00049297042
0.000492970634
0.000492970861
0.000492971096
0.000492971338
0.000492971584
0.000492971835
0.000492972003
0.000492971827
0.000492971694
0.000492971595
0.000492971528
0.000492971492
0.00049297148
0.000492971492
0.000492971525
0.000492971576
0.000492971643
0.000492971727
0.000492971825
0.000492971935
0.000492972057
0.00049297219
0.000492972331
0.000492972479
0.000492972636
0.000492972798
0.000492972966
0.000492973137
0.000492973313
0.000492973491
0.000492973673
0.000492973855
0.000492974039
0.000492974225
0.000492974411
0.000492974597
0.000492974784
0.00049297497
0.000492975155
0.00049297534
0.000492975524
0.000492975706
0.000492975886
0.000492976066
0.000492976244
0.00049297642
0.000492976595
0.000492976767
0.000492976937
0.000492977106
0.000492977274
0.000492977435
0.000492984869
0.000492967766
0.000492974334
0.000492974854
0.00049297624
0.000492976485
0.000492973904
0.000492970291
0.000492965851
0.000492961044
0.000492956523
0.000492952968
0.000492950914
0.000492950625
0.000492952071
0.000492954971
0.000492958891
0.000492955765
0.000492952251
0.000492950197
0.000492949613
0.000492950366
0.000492952235
0.000492954934
0.000492958139
0.000492961495
0.000492964603
0.000492967045
0.000492968427
0.000492968462
0.000492967052
0.000492964348
0.000492960758
0.000492956891
0.000492953434
0.000492951006
0.000492950019
0.000492950596
0.000492952579
0.000492955622
0.00049295932
0.000492963333
0.000492967466
0.000492971671
0.000492976005
0.000492980562
0.000492985425
0.000492990635
0.000492996197
0.000493002091
0.000493008295
0.000493014785
0.000493021543
0.000493028554
0.000493035798
0.000493043252
0.000493050889
0.000493058678
0.000493066587
0.000493074582
0.000493082625
0.00049309068
0.000493098709
0.000493106673
0.000493114535
0.000493122257
0.000493129803
0.00049313714
0.000493144233
0.00049315105
0.000493157561
0.000493163736
0.000493169544
0.000493174962
0.00049317996
0.000493184515
0.000493188604
0.000493186645
0.000493182189
0.00049317722
0.000493171754
0.000493165817
0.000493159438
0.000493152649
0.000493145489
0.000493138
0.00049313023
0.000493122227
0.000493114048
0.000493105748
0.000493097384
0.000493089014
0.000493080698
0.000493072488
0.000493064439
0.0004930566
0.000493049014
0.000493041719
0.000493034751
0.000493028134
0.00049302189
0.000493016034
0.000493010574
0.000493005513
0.000493000848
0.000492996577
0.000492992685
0.000492989162
0.00049298599
0.000492983153
0.000492980629
0.000492978401
0.000492976446
0.000492974743
0.000492973273
0.000492972016
0.00049297095
0.00049297006
0.000492969327
0.000492968733
0.000492968267
0.000492967911
0.000492967654
0.000492967483
0.000492967389
0.000492967361
0.00049296739
0.000492967469
0.00049296759
0.000492967745
0.000492967931
0.000492968142
0.000492968373
0.000492968623
0.000492968887
0.000492969161
0.000492969446
0.000492969738
0.000492970035
0.000492970337
0.00049297064
0.000492970945
0.000492971249
0.000492971555
0.000492971693
0.000492971533
0.000492971408
0.000492971316
0.000492971253
0.000492971219
0.000492971211
0.000492971225
0.000492971263
0.00049297132
0.000492971394
0.000492971485
0.000492971589
0.000492971706
0.000492971836
0.000492971975
0.000492972122
0.000492972277
0.00049297244
0.000492972607
0.00049297278
0.000492972957
0.000492973137
0.000492973319
0.000492973505
0.000492973692
0.000492973879
0.000492974069
0.000492974259
0.000492974448
0.000492974639
0.000492974829
0.000492975017
0.000492975206
0.000492975393
0.000492975578
0.000492975762
0.000492975945
0.000492976126
0.000492976305
0.000492976483
0.000492976658
0.000492976831
0.000492977003
0.000492977173
0.000492977335
0.000492984769
0.000492967578
0.00049297394
0.000492974437
0.000492975943
0.0004929766
0.000492973616
0.000492969473
0.000492964408
0.000492958953
0.000492953861
0.000492949907
0.000492947698
0.000492947519
0.000492949318
0.000492952758
0.000492957322
0.000492954545
0.000492950381
0.000492947836
0.000492946936
0.000492947551
0.000492949442
0.000492952295
0.000492955755
0.000492959422
0.000492962851
0.000492965564
0.000492967102
0.000492967109
0.000492965431
0.000492962198
0.000492957852
0.000492953077
0.000492948666
0.000492945342
0.000492943601
0.000492943613
0.00049294522
0.00049294804
0.000492951611
0.000492955538
0.00049295959
0.000492963703
0.000492967941
0.000492972413
0.000492977216
0.000492982406
0.00049298799
0.000492993954
0.000493000271
0.00049300692
0.000493013882
0.000493021142
0.000493028679
0.000493036472
0.00049304449
0.000493052702
0.000493061071
0.000493069561
0.000493078131
0.000493086741
0.000493095351
0.000493103918
0.000493112401
0.000493120758
0.00049312895
0.000493136939
0.000493144684
0.000493152151
0.000493159307
0.000493166118
0.000493172555
0.000493178591
0.000493184196
0.000493189343
0.000493194006
0.000493191764
0.000493186767
0.000493181228
0.000493175166
0.000493168604
0.000493161574
0.000493154109
0.000493146252
0.000493138047
0.00049312955
0.000493120814
0.000493111904
0.000493102881
0.000493093812
0.000493084764
0.000493075803
0.00049306699
0.000493058385
0.000493050046
0.000493042018
0.000493034344
0.000493027062
0.000493020197
0.00049301377
0.000493007796
0.000493002279
0.00049299722
0.000492992611
0.000492988443
0.0004929847
0.000492981365
0.000492978414
0.000492975825
0.000492973573
0.000492971635
0.000492969982
0.000492968591
0.000492967439
0.0004929665
0.000492965752
0.000492965176
0.000492964751
0.000492964458
0.000492964282
0.000492964207
0.000492964219
0.000492964305
0.000492964455
0.000492964657
0.000492964903
0.000492965187
0.000492965501
0.000492965838
0.000492966196
0.000492966569
0.000492966951
0.000492967343
0.000492967738
0.000492968135
0.000492968534
0.00049296893
0.000492969323
0.000492969713
0.000492970098
0.000492970478
0.00049297085
0.000492971216
0.000492971248
0.000492971099
0.000492970989
0.000492970914
0.000492970869
0.000492970854
0.000492970862
0.000492970893
0.000492970946
0.000492971017
0.000492971104
0.000492971208
0.000492971324
0.000492971451
0.000492971591
0.00049297174
0.000492971897
0.00049297206
0.000492972231
0.000492972407
0.000492972588
0.000492972772
0.00049297296
0.00049297315
0.000492973343
0.000492973537
0.000492973731
0.000492973927
0.000492974122
0.000492974317
0.000492974513
0.000492974707
0.0004929749
0.000492975093
0.000492975284
0.000492975473
0.000492975661
0.000492975848
0.000492976032
0.000492976214
0.000492976395
0.000492976573
0.000492976749
0.000492976924
0.000492977097
0.000492977263
0.000492984704
0.000492967378
0.000492973517
0.000492973981
0.000492975623
0.00049297669
0.000492973278
0.000492968571
0.000492962857
0.000492956748
0.000492951099
0.000492946782
0.000492944465
0.00049294445
0.000492946648
0.000492950648
0.000492955842
0.000492953522
0.000492948628
0.000492945507
0.000492944216
0.000492944627
0.000492946492
0.000492949477
0.000492953191
0.000492957192
0.000492960975
0.000492963992
0.000492965706
0.000492965693
0.000492963759
0.000492960024
0.00049295495
0.000492949285
0.000492943915
0.00049293967
0.000492937133
0.000492936527
0.000492937704
0.000492940247
0.000492943643
0.000492947444
0.000492951381
0.000492955376
0.000492959497
0.000492963869
0.000492968605
0.000492973771
0.000492979381
0.00049298542
0.000492991863
0.000492998686
0.000493005873
0.000493013406
0.000493021266
0.000493029429
0.000493037864
0.000493046536
0.000493055406
0.000493064432
0.000493073571
0.000493082778
0.000493092006
0.000493101208
0.000493110338
0.00049311935
0.0004931282
0.00049313685
0.000493145257
0.000493153385
0.000493161201
0.000493168669
0.000493175757
0.000493182437
0.000493188677
0.000493194448
0.000493199724
0.000493197275
0.00049319172
0.000493185586
0.000493178893
0.000493171665
0.000493163939
0.000493155748
0.000493147139
0.000493138163
0.00049312888
0.00049311935
0.000493109646
0.000493099838
0.000493090002
0.000493080213
0.000493070548
0.000493061078
0.000493051869
0.000493042987
0.000493034483
0.000493026405
0.000493018793
0.000493011673
0.000493005064
0.000492998981
0.000492993424
0.00049298839
0.000492983865
0.000492979836
0.000492976279
0.000492973171
0.000492970482
0.000492968183
0.000492966244
0.000492964635
0.000492963325
0.000492962282
0.000492961482
0.000492960894
0.000492960493
0.000492960257
0.000492960163
0.000492960191
0.000492960324
0.000492960545
0.00049296084
0.000492961194
0.0004929616
0.000492962044
0.000492962519
0.000492963018
0.000492963533
0.000492964058
0.00049296459
0.000492965122
0.000492965652
0.00049296618
0.000492966701
0.000492967213
0.000492967718
0.000492968212
0.000492968694
0.000492969166
0.000492969626
0.000492970073
0.000492970507
0.000492970896
0.000492970801
0.000492970669
0.000492970575
0.000492970515
0.000492970484
0.000492970484
0.000492970507
0.000492970553
0.00049297062
0.000492970705
0.000492970805
0.000492970922
0.00049297105
0.00049297119
0.000492971341
0.0004929715
0.000492971667
0.00049297184
0.000492972021
0.000492972204
0.000492972393
0.000492972585
0.000492972779
0.000492972975
0.000492973174
0.000492973373
0.000492973572
0.000492973773
0.000492973974
0.000492974173
0.000492974374
0.000492974572
0.000492974769
0.000492974967
0.000492975162
0.000492975355
0.000492975546
0.000492975737
0.000492975925
0.00049297611
0.000492976294
0.000492976476
0.000492976655
0.000492976832
0.000492977008
0.000492977176
0.000492984616
0.000492967177
0.000492973091
0.000492973523
0.000492975299
0.000492976764
0.000492972904
0.000492967611
0.000492961219
0.000492954422
0.000492948176
0.000492943454
0.00049294099
0.000492941104
0.000492943678
0.000492948237
0.000492954097
0.000492952439
0.000492946826
0.000492943134
0.000492941451
0.000492941659
0.000492943497
0.000492946606
0.000492950561
0.000492954878
0.000492958999
0.000492962311
0.000492964206
0.000492964183
0.000492961984
0.000492957708
0.000492951849
0.000492945232
0.000492938846
0.00049293363
0.000492930257
0.000492929002
0.000492929723
0.000492931971
0.000492935177
0.00049293884
0.000492942651
0.000492946518
0.000492950513
0.000492954776
0.000492959439
0.000492964577
0.000492970214
0.000492976335
0.000492982915
0.000492989931
0.000492997366
0.000493005203
0.000493013422
0.000493021998
0.000493030898
0.000493040083
0.00049304951
0.000493059134
0.000493068905
0.000493078774
0.00049308869
0.0004930986
0.000493108455
0.000493118204
0.000493127798
0.000493137193
0.000493146343
0.000493155208
0.000493163752
0.000493171937
0.000493179731
0.000493187105
0.000493194025
0.000493200461
0.000493206382
0.000493203804
0.000493197663
0.000493190904
0.000493183545
0.00049317561
0.000493167134
0.000493158154
0.000493148719
0.000493138885
0.000493128719
0.000493118291
0.000493107682
0.000493096974
0.000493086255
0.000493075612
0.000493065134
0.000493054903
0.000493044996
0.000493035486
0.000493026433
0.000493017889
0.000493009896
0.000493002483
0.000492995667
0.000492989461
0.00049298386
0.000492978855
0.000492974428
0.000492970557
0.00049296721
0.000492964358
0.000492961963
0.000492959989
0.000492958398
0.000492957155
0.000492956221
0.000492955562
0.000492955146
0.000492954941
0.000492954917
0.00049295505
0.000492955315
0.000492955689
0.000492956154
0.000492956693
0.00049295729
0.00049295793
0.000492958605
0.000492959302
0.000492960013
0.000492960732
0.000492961453
0.000492962169
0.00049296288
0.000492963579
0.000492964265
0.000492964938
0.000492965593
0.000492966229
0.000492966848
0.000492967446
0.000492968024
0.000492968584
0.000492969124
0.000492969644
0.000492970144
0.000492970408
0.000492970261
0.000492970156
0.000492970088
0.000492970052
0.000492970046
0.000492970067
0.000492970111
0.000492970176
0.000492970262
0.000492970364
0.000492970481
0.000492970613
0.000492970756
0.000492970909
0.000492971073
0.000492971245
0.000492971423
0.000492971607
0.000492971798
0.000492971992
0.00049297219
0.000492972391
0.000492972595
0.000492972799
0.000492973006
0.000492973213
0.00049297342
0.000492973628
0.000492973835
0.00049297404
0.000492974246
0.00049297445
0.000492974652
0.000492974854
0.000492975053
0.000492975251
0.000492975445
0.00049297564
0.000492975831
0.000492976019
0.000492976207
0.000492976392
0.000492976573
0.000492976754
0.000492976933
0.000492977104
0.00049298455
0.000492966971
0.000492972655
0.000492973056
0.000492974974
0.000492976821
0.00049297249
0.000492966584
0.000492959487
0.000492951979
0.000492945123
0.000492939992
0.000492937387
0.000492937643
0.000492940609
0.000492945738
0.00049295225
0.000492951389
0.000492945017
0.000492940726
0.000492938629
0.000492938618
0.000492940423
0.000492943661
0.000492947875
0.000492952531
0.000492957009
0.000492960621
0.000492962678
0.000492962288
0.000492960126
0.0004929553
0.000492948651
0.000492941069
0.000492933643
0.000492927419
0.000492923166
0.000492921214
0.000492921431
0.000492923338
0.000492926312
0.000492929799
0.000492933451
0.00049293716
0.000492941004
0.000492945138
0.000492949712
0.000492954815
0.000492960475
0.000492966682
0.00049297341
0.000492980637
0.000492988345
0.000492996517
0.000493005134
0.000493014167
0.000493023582
0.000493033336
0.000493043382
0.000493053667
0.000493064138
0.000493074737
0.000493085406
0.000493096086
0.000493106721
0.000493117253
0.000493127629
0.000493137801
0.000493147723
0.000493157351
0.00049316665
0.000493175581
0.000493184111
0.000493192211
0.000493199846
0.000493206986
0.000493213599
0.000493211012
0.00049320427
0.000493196863
0.000493188806
0.000493180123
0.000493170848
0.00049316102
0.000493150691
0.000493139923
0.000493128789
0.000493117369
0.000493105756
0.000493094046
0.000493082339
0.000493070738
0.000493059347
0.000493048261
0.00049303757
0.000493027359
0.000493017695
0.000493008637
0.00049300023
0.000492992504
0.000492985476
0.000492979152
0.000492973525
0.000492968577
0.000492964282
0.000492960611
0.000492957522
0.000492954976
0.000492952926
0.000492951329
0.000492950138
0.000492949311
0.000492948802
0.000492948572
0.000492948584
0.0004929488
0.000492949189
0.000492949723
0.000492950374
0.000492951119
0.000492951938
0.000492952813
0.000492953727
0.000492954667
0.000492955624
0.000492956586
0.000492957545
0.000492958497
0.000492959434
0.000492960351
0.000492961248
0.000492962118
0.000492962961
0.000492963777
0.000492964563
0.00049296532
0.000492966049
0.000492966749
0.000492967419
0.000492968063
0.000492968679
0.00049296927
0.000492969809
0.000492969808
0.00049296969
0.000492969613
0.000492969571
0.000492969561
0.000492969579
0.000492969624
0.000492969691
0.000492969778
0.000492969885
0.000492970007
0.000492970142
0.000492970292
0.000492970451
0.00049297062
0.000492970799
0.000492970985
0.000492971176
0.000492971372
0.000492971574
0.000492971779
0.000492971987
0.000492972197
0.000492972409
0.000492972621
0.000492972835
0.000492973049
0.000492973262
0.000492973476
0.000492973689
0.0004929739
0.000492974112
0.000492974321
0.000492974528
0.000492974734
0.000492974938
0.00049297514
0.000492975339
0.000492975537
0.000492975733
0.000492975925
0.000492976116
0.000492976303
0.000492976488
0.000492976672
0.000492976853
0.000492977026
0.000492984473
0.000492966762
0.000492972211
0.000492972582
0.000492974649
0.00049297686
0.000492972034
0.000492965488
0.000492957659
0.000492949414
0.000492941924
0.000492936363
0.0004929336
0.000492933985
0.000492937334
0.00049294303
0.000492950208
0.000492950358
0.000492943219
0.000492938314
0.000492935792
0.000492935553
0.000492937318
0.000492940679
0.000492945141
0.000492950124
0.000492954947
0.000492958856
0.00049296066
0.000492959197
0.000492958197
0.000492952789
0.000492945304
0.000492936706
0.000492928186
0.000492920905
0.000492915723
0.000492913029
0.000492912701
0.000492914231
0.000492916941
0.000492920222
0.000492923687
0.000492927213
0.000492930881
0.000492934865
0.000492939331
0.000492944385
0.000492950062
0.000492956354
0.000492963237
0.000492970689
0.000492978693
0.000492987231
0.000492996285
0.000493005823
0.000493015807
0.000493026191
0.000493036919
0.000493047935
0.000493059177
0.00049307058
0.000493082078
0.000493093606
0.0004931051
0.000493116495
0.000493127734
0.000493138764
0.000493149532
0.000493159994
0.00049317011
0.000493179844
0.000493189162
0.000493198036
0.000493206433
0.000493214323
0.000493221674
0.000493219231
0.000493211867
0.000493203783
0.000493194991
0.000493185512
0.000493175378
0.000493164628
0.000493153317
0.000493141511
0.000493129294
0.000493116757
0.000493104006
0.000493091153
0.000493078318
0.000493065621
0.000493053184
0.00049304112
0.000493029535
0.000493018527
0.000493008173
0.000492998538
0.000492989674
0.000492981608
0.000492974357
0.000492967922
0.000492962286
0.000492957426
0.000492953304
0.000492949879
0.000492947099
0.000492944915
0.000492943268
0.000492942105
0.000492941371
0.000492941015
0.000492940984
0.000492941231
0.000492941717
0.000492942397
0.000492943237
0.000492944207
0.000492945276
0.00049294642
0.000492947618
0.000492948851
0.000492950103
0.00049295136
0.000492952613
0.00049295385
0.000492955065
0.000492956253
0.000492957408
0.000492958527
0.000492959609
0.000492960651
0.000492961653
0.000492962615
0.000492963536
0.000492964416
0.000492965258
0.000492966061
0.000492966825
0.000492967555
0.000492968249
0.00049296891
0.000492969251
0.000492969131
0.000492969052
0.000492969012
0.000492969004
0.000492969026
0.000492969075
0.000492969148
0.000492969242
0.000492969353
0.000492969483
0.000492969627
0.000492969784
0.000492969953
0.000492970131
0.000492970317
0.000492970512
0.000492970712
0.000492970918
0.000492971127
0.000492971342
0.000492971558
0.000492971778
0.000492971999
0.000492972221
0.000492972443
0.000492972666
0.000492972889
0.00049297311
0.000492973332
0.000492973551
0.000492973769
0.000492973986
0.000492974201
0.000492974413
0.000492974624
0.000492974833
0.000492975039
0.000492975242
0.000492975444
0.000492975643
0.000492975838
0.000492976032
0.000492976223
0.000492976411
0.000492976597
0.000492976781
0.000492976957
0.000492984409
0.000492966548
0.000492971759
0.0004929721
0.000492974326
0.000492976879
0.000492971534
0.00049296432
0.000492955731
0.000492946722
0.000492938578
0.000492932575
0.000492929647
0.000492930161
0.000492933896
0.000492940165
0.000492948009
0.000492949358
0.000492941429
0.000492935892
0.000492932929
0.000492932453
0.000492934175
0.000492937663
0.000492942386
0.000492947711
0.000492952894
0.000492957101
0.000492957442
0.000492955032
0.000492955211
0.000492950204
0.000492941855
0.000492932204
0.000492922548
0.000492914158
0.000492907993
0.000492904501
0.000492903574
0.000492904675
0.000492907073
0.000492910104
0.00049291334
0.000492916643
0.000492920099
0.000492923901
0.000492928234
0.000492933219
0.0004929389
0.000492945274
0.000492952317
0.000492960009
0.000492968332
0.000492977272
0.000492986806
0.000492996903
0.000493007519
0.000493018602