/*--------------------------------*- C++ -*----------------------------------*\
| =========                 |                                                 |
| \\      /  F ield         | OpenFOAM: The Open Source CFD Toolbox           |
|  \\    /   O peration     | Version:  v2012                                 |
|   \\  /    A nd           | Website:  www.openfoam.com                      |
|    \\/     M anipulation  |                                                 |
\*---------------------------------------------------------------------------*/
FoamFile
{
    version     2.0;
    format      ascii;
    class       volVectorField;
    location    "2.09";
    object      U;
}
// * * * * * * * * * * * * * * * * * * * * * * * * * * * * * * * * * * * * * //

dimensions      [0 1 -1 0 0 0 0];


internalField   nonuniform List<vector> 
28416
(
(0.0999986476 5.52394504e-06 0)
(0.0999921945 8.79147358e-06 0)
(0.0999841381 3.55556007e-06 0)
(0.099977759 -9.08184597e-06 0)
(0.0999753744 -2.76919628e-05 0)
(0.0999793626 -5.15703096e-05 0)
(0.0999919231 -7.97249604e-05 0)
(0.100014542 -0.000109342419 0)
(0.10004752 -0.000135703478 0)
(0.100089355 -0.00015326848 0)
(0.10013673 -0.000157326075 0)
(0.100185044 -0.000145429804 0)
(0.100229288 -0.000118018991 0)
(0.10026496 -7.80987401e-05 0)
(0.100288834 -3.02805656e-05 0)
(0.100299518 2.04306756e-05 0)
(0.100297442 6.92521441e-05 0)
(0.100284218 0.000111525213 0)
(0.100261906 0.000143887167 0)
(0.100232859 0.000164563466 0)
(0.100199688 0.000173069682 0)
(0.100164924 0.000170067923 0)
(0.100130809 0.000157237173 0)
(0.10009928 0.000137203199 0)
(0.10007201 0.000113364589 0)
(0.100050183 8.96852354e-05 0)
(0.100034032 7.0470757e-05 0)
(0.100022438 5.99953861e-05 0)
(0.100012798 6.18985209e-05 0)
(0.100001274 7.84747449e-05 0)
(0.0999834685 0.000110027717 0)
(0.0999552648 0.000154508961 0)
(0.0999135582 0.000207732341 0)
(0.099856769 0.000264226157 0)
(0.0997850308 0.000318479091 0)
(0.0996999749 0.000366188406 0)
(0.0996041667 0.000405112557 0)
(0.0995003825 0.000435260646 0)
(0.0993909582 0.000458399473 0)
(0.0992773995 0.000477121977 0)
(0.0991603295 0.000493868763 0)
(0.0990397191 0.000510257952 0)
(0.0989152481 0.000526889677 0)
(0.0987866345 0.000543561543 0)
(0.0986538239 0.000559679867 0)
(0.0985170258 0.000574636285 0)
(0.0983766452 0.00058801345 0)
(0.0982331853 0.000599609261 0)
(0.0980871752 0.000609353818 0)
(0.0979391405 0.000617209488 0)
(0.0977896067 0.000623110365 0)
(0.0976391152 0.000626951044 0)
(0.0974882342 0.000628605255 0)
(0.0973375619 0.0006279499 0)
(0.0971877213 0.000624880271 0)
(0.097039352 0.000619314526 0)
(0.0968931029 0.00061119206 0)
(0.096749626 0.000600470681 0)
(0.0966095703 0.000587124959 0)
(0.0964735773 0.000571145802 0)
(0.0963422741 0.000552540568 0)
(0.0962162679 0.000531333321 0)
(0.0960961395 0.000507565447 0)
(0.095982438 0.000481297012 0)
(0.0958756772 0.000452609045 0)
(0.0957763339 0.000421606395 0)
(0.095684849 0.000388420125 0)
(0.095601632 0.000353208074 0)
(0.0955270659 0.00031615245 0)
(0.0954615126 0.000277454261 0)
(0.0954053151 0.000237325317 0)
(0.0953587988 0.000195980261 0)
(0.0953222763 0.000153620742 0)
(0.0952961271 0.00011043609 0)
(0.0952806976 6.64963978e-05 0)
(0.0952754821 2.17155446e-05 0)
(0.0952800546 -2.31708309e-05 0)
(0.0952952412 -6.76934013e-05 0)
(0.0953214756 -0.000111987646 0)
(0.0953583598 -0.000155933625 0)
(0.0954056232 -0.000199262613 0)
(0.095463109 -0.00024174033 0)
(0.0955305401 -0.000283142832 0)
(0.0956075322 -0.000323227829 0)
(0.0956936437 -0.000361740635 0)
(0.0957883761 -0.000398420097 0)
(0.0958911679 -0.000432999991 0)
(0.096001402 -0.000465214077 0)
(0.0961184175 -0.000494806526 0)
(0.0962415182 -0.000521544583 0)
(0.0963699777 -0.000545230015 0)
(0.0965030442 -0.000565707155 0)
(0.0966399461 -0.000582866859 0)
(0.0967798979 -0.000596647018 0)
(0.0969221086 -0.000607030981 0)
(0.0970657909 -0.000614045108 0)
(0.0972101709 -0.000617756112 0)
(0.0973544987 -0.000618268284 0)
(0.0974980569 -0.000615720364 0)
(0.0976401687 -0.000610281873 0)
(0.0977802047 -0.000602148842 0)
(0.0979175879 -0.000591539015 0)
(0.0980517978 -0.000578686715 0)
(0.0981823727 -0.000563837567 0)
(0.0983089114 -0.000547243297 0)
(0.0984310733 -0.000529156814 0)
(0.0985485776 -0.000509827738 0)
(0.0986612016 -0.000489498489 0)
(0.0987687782 -0.000468400996 0)
(0.0988711926 -0.000446753998 0)
(0.0989683786 -0.00042476089 0)
(0.0990603149 -0.000402608118 0)
(0.0991470203 -0.000380464099 0)
(0.0992285502 -0.000358478695 0)
(0.0993049915 -0.000336783258 0)
(0.0993764591 -0.000315491148 0)
(0.099443091 -0.000294698591 0)
(0.099505045 -0.000274485764 0)
(0.0995624942 -0.000254918017 0)
(0.0996156242 -0.000236047115 0)
(0.0996646289 -0.000217912519 0)
(0.0997097084 -0.000200542645 0)
(0.0997510664 -0.000183956158 0)
(0.0997889077 -0.000168163365 0)
(0.0998234367 -0.000153167725 0)
(0.0998548554 -0.000138967552 0)
(0.0998833613 -0.000125557684 0)
(0.0999091448 -0.000112930661 0)
(0.0999323868 -0.00010107692 0)
(0.0999532573 -8.99840449e-05 0)
(0.0999719143 -7.96354994e-05 0)
(0.0999885054 -7.00093296e-05 0)
(0.100003169 -6.10778905e-05 0)
(0.100016038 -5.2808538e-05 0)
(0.100027238 -4.51649266e-05 0)
(0.100036891 -3.81084516e-05 0)
(0.100045114 -3.15993534e-05 0)
(0.100052019 -2.55973053e-05 0)
(0.100057712 -2.006155e-05 0)
(0.100062297 -1.49508805e-05 0)
(0.100065875 -1.0223491e-05 0)
(0.100068542 -5.83818036e-06 0)
(0.100070413 -1.74971156e-06 0)
(0.10007159 2.06743473e-06 0)
(0.100072056 5.65636301e-06 0)
(0.100071888 9.10346798e-06 0)
(0.100071294 1.23844774e-05 0)
(0.100070376 1.5441699e-05 0)
(0.100069165 1.82401927e-05 0)
(0.10006768 2.0762024e-05 0)
(0.100065935 2.30009095e-05 0)
(0.100063937 2.49631659e-05 0)
(0.100061695 2.66646743e-05 0)
(0.100059219 2.81266438e-05 0)
(0.100056525 2.93724621e-05 0)
(0.10005363 3.04254916e-05 0)
(0.100050555 3.13076072e-05 0)
(0.100047321 3.20384143e-05 0)
(0.100043951 3.26349754e-05 0)
(0.100040464 3.31118437e-05 0)
(0.10003688 3.34812503e-05 0)
(0.100033219 3.37533355e-05 0)
(0.100029496 3.39364273e-05 0)
(0.100025726 3.40373605e-05 0)
(0.100021922 3.4061826e-05 0)
(0.100018095 3.40147296e-05 0)
(0.100014254 3.39005263e-05 0)
(0.100010407 3.37234955e-05 0)
(0.100006561 3.34879333e-05 0)
(0.100002721 3.31982526e-05 0)
(0.0999988922 3.28589971e-05 0)
(0.0999950787 3.24747878e-05 0)
(0.0999912846 3.20502327e-05 0)
(0.0999875138 3.15898281e-05 0)
(0.0999837698 3.10978994e-05 0)
(0.0999800562 3.05784509e-05 0)
(0.0999763763 3.00350339e-05 0)
(0.0999727333 2.94707465e-05 0)
(0.09996913 2.88882862e-05 0)
(0.0999655693 2.82899892e-05 0)
(0.0999620535 2.76778629e-05 0)
(0.0999585847 2.70536118e-05 0)
(0.0999551653 2.64187232e-05 0)
(0.0999517951 2.57743686e-05 0)
(0.0999484823 2.51222379e-05 0)
(0.0999452068 2.44613998e-05 0)
(0.0999420475 2.38014566e-05 0)
(0.0999387572 2.31046807e-05 0)
(0.0999362449 2.2523467e-05 0)
(0.0999316993 2.13826914e-05 0)
(0.0999987711 1.28309463e-05 0)
(0.0999916833 2.31216071e-05 0)
(0.099981043 1.73425614e-05 0)
(0.099971036 -2.03957559e-06 0)
(0.0999653688 -3.28709256e-05 0)
(0.0999667557 -7.36571599e-05 0)
(0.099977857 -0.000122462884 0)
(0.100000921 -0.000174552845 0)
(0.10003684 -0.000222006727 0)
(0.100084345 -0.000255450306 0)
(0.100139817 -0.000266796067 0)
(0.100197856 -0.000251656638 0)
(0.100252336 -0.000210450752 0)
(0.100297554 -0.000148005332 0)
(0.100329323 -7.20631266e-05 0)
(0.100345386 8.43768783e-06 0)
(0.100344762 8.46701475e-05 0)
(0.100328572 0.000150297396 0)
(0.100300111 0.00020075446 0)
(0.100263134 0.000233528152 0)
(0.100221373 0.000248061713 0)
(0.100178419 0.000245420901 0)
(0.100137578 0.000227953771 0)
(0.100101685 0.000199157177 0)
(0.100072888 0.00016366034 0)
(0.100052443 0.000127212584 0)
(0.10004042 9.65313658e-05 0)
(0.100035392 7.87362175e-05 0)
(0.100034327 8.02269337e-05 0)
(0.100032786 0.000105223534 0)
(0.100025441 0.000154470045 0)
(0.100006924 0.00022465106 0)
(0.099972859 0.000308843245 0)
(0.0999207459 0.000397982818 0)
(0.0998503947 0.000482971795 0)
(0.0997637671 0.000556783713 0)
(0.0996642762 0.000615889377 0)
(0.0995557774 0.000660550162 0)
(0.0994415905 0.000693952908 0)
(0.0993238658 0.00072060558 0)
(0.0992034444 0.000744664362 0)
(0.0990801589 0.000768801935 0)
(0.0989533606 0.000793902129 0)
(0.0988224208 0.000819466452 0)
(0.0986870364 0.000844352751 0)
(0.0985472988 0.000867440427 0)
(0.0984035978 0.000887984796 0)
(0.0982564716 0.000905646812 0)
(0.0981064905 0.000920334088 0)
(0.0979542077 0.000932015857 0)
(0.0978001632 0.00094061185 0)
(0.0976449082 0.000945971446 0)
(0.0974890265 0.000947906922 0)
(0.0973331401 0.000946236293 0)
(0.0971779036 0.000940810075 0)
(0.0970239935 0.000931518645 0)
(0.0968720979 0.000918288727 0)
(0.0967229085 0.000901078118 0)
(0.0965771139 0.000879873019 0)
(0.0964353943 0.000854688001 0)
(0.0962984152 0.000825566908 0)
(0.0961668222 0.000792583357 0)
(0.0960412351 0.000755840379 0)
(0.0959222446 0.000715469303 0)
(0.0958104095 0.000671628016 0)
(0.0957062548 0.000624498656 0)
(0.0956102717 0.000574284858 0)
(0.0955229167 0.000521208916 0)
(0.0954446117 0.000465509034 0)
(0.0953757437 0.000407436577 0)
(0.0953166665 0.000347253004 0)
(0.0952676934 0.000285226006 0)
(0.0952291118 0.000221625444 0)
(0.095201154 0.000156707371 0)
(0.0951838557 9.06395063e-05 0)
(0.0951775191 2.35909136e-05 0)
(0.0951824313 -4.37940323e-05 0)
(0.0951984047 -0.000110940366 0)
(0.09522542 -0.000177707501 0)
(0.0952635112 -0.000243817765 0)
(0.0953125318 -0.000308876542 0)
(0.0953722794 -0.00037251643 0)
(0.0954424912 -0.000434371865 0)
(0.0955228142 -0.000494053662 0)
(0.0956128145 -0.000551162827 0)
(0.0957119853 -0.000605304347 0)
(0.0958197485 -0.000656094533 0)
(0.0959354589 -0.000703169053 0)
(0.0960584133 -0.000746192635 0)
(0.0961878581 -0.000784868281 0)
(0.096322997 -0.000818945017 0)
(0.0964629982 -0.000848224283 0)
(0.0966070033 -0.000872565087 0)
(0.0967541371 -0.000891887625 0)
(0.0969035191 -0.000906175082 0)
(0.0970542746 -0.000915473452 0)
(0.0972055478 -0.000919889462 0)
(0.0973565124 -0.000919586794 0)
(0.0975063827 -0.0009147809 0)
(0.0976544224 -0.000905732734 0)
(0.0977999527 -0.000892741669 0)
(0.0979423573 -0.000876137924 0)
(0.0980810872 -0.000856274723 0)
(0.0982156629 -0.000833520476 0)
(0.0983456753 -0.000808251207 0)
(0.0984707856 -0.00078084347 0)
(0.0985907228 -0.000751667912 0)
(0.0987052818 -0.000721083621 0)
(0.0988143191 -0.000689433349 0)
(0.0989177487 -0.000657039632 0)
(0.0990155371 -0.000624201804 0)
(0.0991076983 -0.000591193888 0)
(0.0991942881 -0.000558263286 0)
(0.0992753993 -0.00052563017 0)
(0.099351156 -0.000493487537 0)
(0.0994217094 -0.000462001817 0)
(0.0994872322 -0.00043131391 0)
(0.099547915 -0.000401540619 0)
(0.0996039615 -0.000372776349 0)
(0.099655585 -0.000345094963 0)
(0.0997030051 -0.000318551782 0)
(0.0997464445 -0.000293185647 0)
(0.0997861269 -0.000269020989 0)
(0.0998222736 -0.000246069858 0)
(0.0998551024 -0.000224333758 0)
(0.0998848248 -0.000203805142 0)
(0.0999116452 -0.000184468561 0)
(0.0999357596 -0.000166301645 0)
(0.0999573551 -0.000149276047 0)
(0.0999766096 -0.00013335834 0)
(0.0999936914 -0.000118510634 0)
(0.100008759 -0.000104690661 0)
(0.100021961 -9.18521269e-05 0)
(0.100033439 -7.99453017e-05 0)
(0.100043327 -6.89178293e-05 0)
(0.10005175 -5.87157158e-05 0)
(0.100058828 -4.92842916e-05 0)
(0.100064676 -4.05689659e-05 0)
(0.100069402 -3.25157598e-05 0)
(0.100073111 -2.50719774e-05 0)
(0.100075903 -1.81871432e-05 0)
(0.100077879 -1.18156713e-05 0)
(0.100079139 -5.9202844e-06 0)
(0.10007978 -4.93720251e-07 0)
(0.100079857 4.4137575e-06 0)
(0.10007937 8.9254438e-06 0)
(0.100078361 1.31042649e-05 0)
(0.10007692 1.69602096e-05 0)
(0.100075124 2.04917995e-05 0)
(0.100073024 2.36988525e-05 0)
(0.100070661 2.65866153e-05 0)
(0.100068068 2.91644069e-05 0)
(0.100065272 3.14454589e-05 0)
(0.10006229 3.34468078e-05 0)
(0.100059142 3.5187769e-05 0)
(0.100055843 3.66884934e-05 0)
(0.10005241 3.79690307e-05 0)
(0.100048858 3.90487159e-05 0)
(0.100045205 3.99457692e-05 0)
(0.100041465 4.06771177e-05 0)
(0.100037653 4.12583279e-05 0)
(0.100033784 4.17033868e-05 0)
(0.10002987 4.20246935e-05 0)
(0.100025925 4.22332185e-05 0)
(0.100021957 4.23386963e-05 0)
(0.100017978 4.2349824e-05 0)
(0.100013995 4.22744536e-05 0)
(0.100010016 4.21197623e-05 0)
(0.100006048 4.18923947e-05 0)
(0.100002095 4.159857e-05 0)
(0.0999981628 4.12441531e-05 0)
(0.0999942562 4.08346903e-05 0)
(0.0999903787 4.03754147e-05 0)
(0.0999865338 3.98712257e-05 0)
(0.0999827248 3.93266351e-05 0)
(0.0999789542 3.87458461e-05 0)
(0.0999752246 3.81328075e-05 0)
(0.099971538 3.74911487e-05 0)
(0.0999678967 3.68241317e-05 0)
(0.0999643025 3.61346541e-05 0)
(0.0999607572 3.54252688e-05 0)
(0.0999572623 3.46981859e-05 0)
(0.0999538198 3.39553541e-05 0)
(0.0999504292 3.31982427e-05 0)
(0.0999470988 3.24288433e-05 0)
(0.0999438069 3.16456026e-05 0)
(0.0999406339 3.08593552e-05 0)
(0.0999373165 3.00274683e-05 0)
(0.0999347871 2.93227014e-05 0)
(0.0999301054 2.80033272e-05 0)
(0.0999987171 1.71318116e-05 0)
(0.099991916 3.26081636e-05 0)
(0.0999821041 2.88252712e-05 0)
(0.0999728818 9.28461784e-06 0)
(0.0999680193 -2.34895033e-05 0)
(0.0999705105 -6.84060092e-05 0)
(0.0999825642 -0.000123418348 0)
(0.100006084 -0.000183237628 0)
(0.100041811 -0.000238919875 0)
(0.100088494 -0.000279665886 0)
(0.100142709 -0.000295948134 0)
(0.100199361 -0.000282376004 0)
(0.100252648 -0.000239072605 0)
(0.100297151 -0.000171285884 0)
(0.100328633 -8.77580417e-05 0)
(0.100344352 1.28343001e-06 0)
(0.10034475 8.64346827e-05 0)
(0.10033182 0.000159865728 0)
(0.100307298 0.000216291681 0)
(0.100274053 0.000252950668 0)
(0.100235626 0.00026928938 0)
(0.100195506 0.000266488259 0)
(0.100156826 0.000247060277 0)
(0.100122286 0.000214630991 0)
(0.100094043 0.000174043236 0)
(0.100073506 0.000131548138 0)
(0.10006101 9.47148653e-05 0)
(0.100055421 7.1753214e-05 0)
(0.100053885 7.01928967e-05 0)
(0.100051985 9.52125946e-05 0)
(0.100044429 0.000148125471 0)
(0.100026024 0.00022556556 0)
(0.0999925914 0.000319831303 0)
(0.0999416825 0.0004204695 0)
(0.0998729676 0.000516709756 0)
(0.0997881211 0.00060001715 0)
(0.0996902179 0.000665930164 0)
(0.0995828295 0.000714569921 0)
(0.0994691199 0.000749707474 0)
(0.0993512273 0.000776848796 0)
(0.0992300899 0.000801157626 0)
(0.0991056835 0.000826001885 0)
(0.0989774886 0.000852520621 0)
(0.0988449581 0.000880100223 0)
(0.0987078169 0.000907295447 0)
(0.0985661477 0.000932678629 0)
(0.098420318 0.000955302842 0)
(0.098270849 0.00097474908 0)
(0.0981183077 0.000990925084 0)
(0.0979632567 0.00100382473 0)
(0.097806254 0.00101338005 0)
(0.0976478732 0.00101943036 0)
(0.0974887212 0.00102176336 0)
(0.0973294446 0.00102017024 0)
(0.0971707237 0.00101448073 0)
(0.0970132623 0.00100457294 0)
(0.0968577777 0.000990368596 0)
(0.0967049923 0.000971825763 0)
(0.0965556265 0.000948934682 0)
(0.0964103923 0.00092171685 0)
(0.096269987 0.000890225154 0)
(0.0961350864 0.00085454339 0)
(0.0960063382 0.000814784878 0)
(0.0958843565 0.000771090774 0)
(0.0957697162 0.000723628856 0)
(0.0956629507 0.000672593025 0)
(0.0955645518 0.000618202875 0)
(0.095474973 0.000560702185 0)
(0.0953946342 0.000500355464 0)
(0.0953239259 0.000437442645 0)
(0.0952632103 0.000372253291 0)
(0.0952128214 0.000305081239 0)
(0.0951730583 0.000236227206 0)
(0.0951441845 0.000165985019 0)
(0.095126439 9.46761551e-05 0)
(0.0951198217 2.27301538e-05 0)
(0.0951243224 -4.96521044e-05 0)
(0.0951401919 -0.000122152025 0)
(0.0951675604 -0.000194350789 0)
(0.0952063525 -0.000265895972 0)
(0.0952564121 -0.000336402421 0)
(0.0953175453 -0.000405454033 0)
(0.0953894917 -0.000472626852 0)
(0.095471899 -0.000537486993 0)
(0.0955643323 -0.000599592265 0)
(0.0956662826 -0.000658500061 0)
(0.0957771652 -0.000713775488 0)
(0.0958963216 -0.000765000396 0)
(0.0960230249 -0.000811784802 0)
(0.0961564868 -0.000853779692 0)
(0.0962958658 -0.000890689104 0)
(0.0964402767 -0.000922279886 0)
(0.0965888018 -0.000948388433 0)
(0.0967405038 -0.000968924318 0)
(0.0968944396 -0.000983871195 0)
(0.0970496739 -0.0009932855 0)
(0.0972052929 -0.000997293372 0)
(0.0973604176 -0.000996086026 0)
(0.0975142149 -0.000989913683 0)
(0.0976659082 -0.000979078241 0)
(0.0978147853 -0.000963924926 0)
(0.0979602051 -0.000944833279 0)
(0.0981016012 -0.000922207834 0)
(0.0982384851 -0.000896468862 0)
(0.0983704462 -0.000868043472 0)
(0.0984971504 -0.000837357389 0)
(0.0986183383 -0.00080482757 0)
(0.0987338209 -0.000770855822 0)
(0.0988434748 -0.000735823504 0)
(0.0989472373 -0.000700087298 0)
(0.0990451003 -0.000663976045 0)
(0.0991371046 -0.0006277886 0)
(0.0992233332 -0.000591792633 0)
(0.0993039061 -0.000556224258 0)
(0.0993789742 -0.000521288444 0)
(0.0994487133 -0.000487160041 0)
(0.0995133201 -0.000453985253 0)
(0.0995730063 -0.000421883485 0)
(0.0996279951 -0.000390949412 0)
(0.0996785174 -0.000361255157 0)
(0.0997248079 -0.00033285249 0)
(0.0997671026 -0.000305774984 0)
(0.0998056361 -0.000280040063 0)
(0.0998406399 -0.000255651013 0)
(0.0998723413 -0.000232599121 0)
(0.0999009617 -0.00021086609 0)
(0.0999267158 -0.000190426512 0)
(0.0999498087 -0.000171249889 0)
(0.0999704343 -0.000153301659 0)
(0.0999887739 -0.000136543281 0)
(0.100004996 -0.000120931995 0)
(0.100019258 -0.000106420741 0)
(0.100031707 -9.29585702e-05 0)
(0.10004248 -8.04915702e-05 0)
(0.10005171 -6.89640339e-05 0)
(0.100059518 -5.83195956e-05 0)
(0.100066023 -4.85022352e-05 0)
(0.100071335 -3.94571791e-05 0)
(0.10007556 -3.11317438e-05 0)
(0.100078796 -2.34762041e-05 0)
(0.100081135 -1.64445574e-05 0)
(0.10008266 -9.99566624e-06 0)
(0.100083441 -4.09095061e-06 0)
(0.100083478 1.31167981e-06 0)
(0.100082889 6.29761971e-06 0)
(0.100081881 1.08624416e-05 0)
(0.100080532 1.50291099e-05 0)
(0.100078868 1.88165117e-05 0)
(0.10007691 2.22375451e-05 0)
(0.100074684 2.53113132e-05 0)
(0.100072214 2.80574765e-05 0)
(0.100069517 3.04962028e-05 0)
(0.100066611 3.26491449e-05 0)
(0.100063513 3.45372306e-05 0)
(0.100060242 3.61801279e-05 0)
(0.100056818 3.75972664e-05 0)
(0.100053258 3.88077267e-05 0)
(0.100049583 3.98297156e-05 0)
(0.100045812 4.06801721e-05 0)
(0.100041961 4.13744437e-05 0)
(0.100038048 4.19261174e-05 0)
(0.100034088 4.23472899e-05 0)
(0.100030093 4.264879e-05 0)
(0.100026074 4.28403261e-05 0)
(0.100022043 4.2930659e-05 0)
(0.100018008 4.29277854e-05 0)
(0.100013977 4.28391112e-05 0)
(0.100009955 4.26715951e-05 0)
(0.100005949 4.24318513e-05 0)
(0.100001963 4.21262066e-05 0)
(0.0999980017 4.17607159e-05 0)
(0.0999940678 4.13411472e-05 0)
(0.0999901649 4.08729474e-05 0)
(0.0999862961 4.03611977e-05 0)
(0.0999824641 3.98105493e-05 0)
(0.0999786719 3.92253034e-05 0)
(0.0999749222 3.8609474e-05 0)
(0.0999712173 3.79667341e-05 0)
(0.0999675593 3.73003701e-05 0)
(0.0999639501 3.66132876e-05 0)
(0.0999603913 3.59080316e-05 0)
(0.0999568843 3.51867855e-05 0)
(0.0999534307 3.44514356e-05 0)
(0.0999500299 3.37033059e-05 0)
(0.0999466892 3.29440335e-05 0)
(0.0999433872 3.21717467e-05 0)
(0.0999402022 3.13955744e-05 0)
(0.0999368819 3.05768939e-05 0)
(0.0999343425 2.98718786e-05 0)
(0.0999297556 2.85830087e-05 0)
(0.0999986586 2.23301437e-05 0)
(0.0999910691 4.31601905e-05 0)
(0.099979823 3.91283665e-05 0)
(0.0999693785 1.44910535e-05 0)
(0.099963532 -2.76594849e-05 0)
(0.0999650522 -8.58346252e-05 0)
(0.0999768916 -0.000157297679 0)
(0.100001456 -0.000235279816 0)
(0.100039693 -0.000308284933 0)
(0.10009037 -0.000362366467 0)
(0.100149822 -0.000385136183 0)
(0.100212455 -0.000369475714 0)
(0.100271811 -0.000315360765 0)
(0.100321775 -0.000229400817 0)
(0.100357656 -0.00012275887 0)
(0.100377141 -8.35809921e-06 0)
(0.100379129 0.000101675824 0)
(0.100364493 0.000196776687 0)
(0.100336684 0.000269886948 0)
(0.100299605 0.000317481785 0)
(0.100257226 0.000338881386 0)
(0.100213471 0.000335580239 0)
(0.100172008 0.000310761807 0)
(0.100136029 0.000269070579 0)
(0.100108025 0.000216707919 0)
(0.100089487 0.000161658599 0)
(0.100080546 0.000113592308 0)
(0.100079674 8.30417488e-05 0)
(0.100083637 7.97406231e-05 0)
(0.100087757 0.000110421977 0)
(0.100086393 0.000176800534 0)
(0.100073754 0.000274561212 0)
(0.10004501 0.000393848523 0)
(0.0999972724 0.000521307067 0)
(0.0999300818 0.000643192673 0)
(0.0998452696 0.000748623627 0)
(0.0997462588 0.00083191234 0)
(0.0996370337 0.000893206964 0)
(0.0995211207 0.000937306439 0)
(0.0994009004 0.000971230499 0)
(0.0992774155 0.00100157913 0)
(0.0991506334 0.0010326761 0)
(0.0990199603 0.00106600448 0)
(0.0988847552 0.00110080022 0)
(0.0987446627 0.00113521932 0)
(0.0985997132 0.00116742277 0)
(0.0984502495 0.00119617578 0)
(0.0982967877 0.00122091793 0)
(0.0981399013 0.00124151315 0)
(0.0979801658 0.00125794453 0)
(0.0978181565 0.00127012348 0)
(0.0976544692 0.00127784708 0)
(0.0974897392 0.00128084786 0)
(0.0973246471 0.00127886303 0)
(0.0971599128 0.00127167916 0)
(0.0969962836 0.00125914508 0)
(0.0968345227 0.00124116616 0)
(0.0966753992 0.00121769517 0)
(0.0965196793 0.00118872723 0)
(0.0963681194 0.00115429911 0)
(0.0962214578 0.00111449012 0)
(0.0960804088 0.00106942239 0)
(0.0959456575 0.00101925943 0)
(0.0958178557 0.000964203155 0)
(0.0956976216 0.000904489261 0)
(0.0955855386 0.000840381286 0)
(0.0954821531 0.000772164034 0)
(0.0953879714 0.000700137835 0)
(0.0953034552 0.000624614724 0)
(0.0952290191 0.000545916354 0)
(0.0951650321 0.000464373509 0)
(0.0951118195 0.000380325343 0)
(0.0950696678 0.000294117817 0)
(0.0950388311 0.000206106682 0)
(0.0950195059 0.000116643173 0)
(0.0950118786 2.60700859e-05 0)
(0.0950161265 -6.50820417e-05 0)
(0.0950323113 -0.000156317631 0)
(0.0950604355 -0.000247193741 0)
(0.0951004818 -0.000337244549 0)
(0.0951523743 -0.000425963689 0)
(0.095215959 -0.000512817635 0)
(0.095290999 -0.00059725969 0)
(0.0953771662 -0.000678728498 0)
(0.0954740373 -0.000756652369 0)
(0.0955810934 -0.000830462708 0)
(0.0956977213 -0.000899608091 0)
(0.0958232162 -0.000963566999 0)
(0.0959567887 -0.00102186036 0)
(0.0960975742 -0.00107406383 0)
(0.0962446441 -0.00111981908 0)
(0.0963970179 -0.00115884373 0)
(0.0965536778 -0.00119093958 0)
(0.0967135835 -0.00121599853 0)
(0.0968756884 -0.00123400565 0)
(0.0970389564 -0.00124503895 0)
(0.0972023778 -0.00124926617 0)
(0.0973649853 -0.00124693871 0)
(0.0975258671 -0.0012383834 0)
(0.0976841788 -0.00122399246 0)
(0.0978391534 -0.00120421222 0)
(0.0979901072 -0.00117953125 0)
(0.098136445 -0.00115046809 0)
(0.0982776617 -0.00111755935 0)
(0.0984133418 -0.00108134834 0)
(0.098543158 -0.00104237462 0)
(0.0986668666 -0.00100116477 0)
(0.0987843027 -0.000958224467 0)
(0.0988953741 -0.000914031989 0)
(0.0990000543 -0.000869033144 0)
(0.0990983755 -0.00082363757 0)
(0.099190421 -0.000778216356 0)
(0.0992763179 -0.000733100825 0)
(0.0993562303 -0.000688582288 0)
(0.0994303521 -0.000644912698 0)
(0.0994989013 -0.000602306008 0)
(0.0995621142 -0.000560940073 0)
(0.0996202402 -0.000520959018 0)
(0.0996735372 -0.000482475918 0)
(0.0997222679 -0.000445575651 0)
(0.0997666961 -0.000410317909 0)
(0.0998070842 -0.000376740314 0)
(0.0998436902 -0.000344861569 0)
(0.0998767658 -0.000314684507 0)
(0.0999065532 -0.000286198681 0)
(0.0999332835 -0.000259382146 0)
(0.0999571749 -0.000234202466 0)
(0.099978434 -0.000210617546 0)
(0.0999972572 -0.000188576915 0)
(0.100013832 -0.000168023531 0)
(0.100028335 -0.000148895736 0)
(0.100040935 -0.00013112879 0)
(0.100051788 -0.000114655873 0)
(0.100061043 -9.94087314e-05 0)
(0.100068836 -8.53183233e-05 0)
(0.100075292 -7.2315518e-05 0)
(0.100080532 -6.03317592e-05 0)
(0.100084664 -4.92996214e-05 0)
(0.100087792 -3.91532206e-05 0)
(0.100090013 -2.98284858e-05 0)
(0.100091417 -2.12633092e-05 0)
(0.100092098 -1.3398241e-05 0)
(0.100092154 -6.1772711e-06 0)
(0.100091739 4.39812419e-07 0)
(0.100090852 6.51887559e-06 0)
(0.100089423 1.21058035e-05 0)
(0.100087519 1.72256424e-05 0)
(0.100085221 2.18977106e-05 0)
(0.100082604 2.61422905e-05 0)
(0.100079727 2.9972456e-05 0)
(0.100076633 3.34014353e-05 0)
(0.100073358 3.64467825e-05 0)
(0.100069928 3.9128998e-05 0)
(0.100066359 4.14718712e-05 0)
(0.100062669 4.35017457e-05 0)
(0.100058872 4.52451845e-05 0)
(0.100054984 4.67277208e-05 0)
(0.100051019 4.79732739e-05 0)
(0.100046988 4.90038161e-05 0)
(0.100042904 4.98392034e-05 0)
(0.100038778 5.04971749e-05 0)
(0.100034621 5.09937319e-05 0)
(0.100030443 5.13433974e-05 0)
(0.100026254 5.15593504e-05 0)
(0.100022063 5.16535489e-05 0)
(0.100017878 5.16368486e-05 0)
(0.100013705 5.15191181e-05 0)
(0.100009552 5.13093532e-05 0)
(0.100005424 5.10157895e-05 0)
(0.100001327 5.06460085e-05 0)
(0.0999972637 5.02070297e-05 0)
(0.0999932387 4.97053852e-05 0)
(0.0999892551 4.9147178e-05 0)
(0.0999853153 4.85381275e-05 0)
(0.0999814216 4.78836283e-05 0)
(0.0999775759 4.71886783e-05 0)
(0.0999737799 4.64578068e-05 0)
(0.099970035 4.56951097e-05 0)
(0.0999663425 4.49042899e-05 0)
(0.0999627033 4.40886662e-05 0)
(0.0999591186 4.3251178e-05 0)
(0.0999555889 4.23943716e-05 0)
(0.0999521155 4.15204758e-05 0)
(0.0999486968 4.06311129e-05 0)
(0.0999453402 3.97284223e-05 0)
(0.0999420221 3.88107054e-05 0)
(0.0999388227 3.78893999e-05 0)
(0.0999354716 3.69214539e-05 0)
(0.0999329149 3.60872806e-05 0)
(0.0999281484 3.45952331e-05 0)
(0.0999986796 2.76488967e-05 0)
(0.0999913588 5.49651354e-05 0)
(0.0999804113 5.3021249e-05 0)
(0.0999697657 2.65614496e-05 0)
(0.0999636751 -2.10875805e-05 0)
(0.0999656259 -8.80256544e-05 0)
(0.0999782219 -0.000171068353 0)
(0.100003584 -0.000262484879 0)
(0.100042625 -0.000349076804 0)
(0.100094097 -0.00041467179 0)
(0.100154373 -0.000444703619 0)
(0.100217957 -0.000430555729 0)
(0.100278509 -0.000371785523 0)
(0.100330012 -0.000275717617 0)
(0.100367758 -0.000155095287 0)
(0.100388862 -2.50316219e-05 0)
(0.100392758 9.9606847e-05 0)
(0.100380811 0.000207587148 0)
(0.100355601 0.000291050595 0)
(0.100320705 0.000345702726 0)
(0.100280132 0.000370554611 0)
(0.100237883 0.000367194747 0)
(0.100197675 0.000339105007 0)
(0.100162744 0.000291372879 0)
(0.100135658 0.000230845025 0)
(0.10011804 0.000166464836 0)
(0.100110219 0.000109267264 0)
(0.100110887 7.14898599e-05 0)
(0.100116857 6.46391373e-05 0)
(0.100123205 9.69166785e-05 0)
(0.100124023 0.000170792287 0)
(0.100113477 0.000281649074 0)
(0.100086779 0.000418226697 0)
(0.100041007 0.000564951148 0)
(0.099975577 0.000705580596 0)
(0.0998921621 0.000827091481 0)
(0.0997940566 0.000922540223 0)
(0.0996851786 0.000991938171 0)
(0.0995690548 0.00104092352 0)
(0.0994481085 0.00107788965 0)
(0.0993234351 0.00111080398 0)
(0.0991950408 0.00114493276 0)
(0.0990623475 0.00118211501 0)
(0.0989247122 0.00122144984 0)
(0.0987817709 0.00126070118 0)
(0.0986335486 0.00129762144 0)
(0.0984803908 0.00133069332 0)
(0.0983228254 0.00135922617 0)
(0.0981614443 0.00138305598 0)
(0.0979968473 0.00140217202 0)
(0.0978296386 0.00141648031 0)
(0.097660448 0.00142574802 0)
(0.0974899498 0.00142966242 0)
(0.0973188684 0.00142791534 0)
(0.0971479716 0.00142025825 0)
(0.0969780583 0.00140651871 0)
(0.0968099458 0.00138659378 0)
(0.0966444593 0.00136043883 0)
(0.0964824229 0.00132806086 0)
(0.0963246516 0.00128951665 0)
(0.0961719436 0.00124491213 0)
(0.0960250715 0.00119440039 0)
(0.0958847746 0.00113817743 0)
(0.09575175 0.00107647673 0)
(0.0956266443 0.00100956406 0)
(0.0955100489 0.00093773354 0)
(0.0954024996 0.000861304485 0)
(0.0953044831 0.000780618237 0)
(0.0952164456 0.000696033963 0)
(0.0951388008 0.00060792377 0)
(0.095071932 0.000516668219 0)
(0.0950161914 0.000422653224 0)
(0.0949718975 0.000326271466 0)
(0.0949393207 0.000227921399 0)
(0.0949186799 0.000128018769 0)
(0.0949101635 2.70301242e-05 0)
(0.0949139248 -7.46010679e-05 0)
(0.094930116 -0.000176440902 0)
(0.0949588466 -0.000277998458 0)
(0.0950001224 -0.000378734266 0)
(0.0950538643 -0.000478076635 0)
(0.0951199199 -0.000575424112 0)
(0.0951980561 -0.000670148318 0)
(0.0952879481 -0.000761600077 0)
(0.0953891717 -0.000849117741 0)
(0.0955012006 -0.000932038303 0)
(0.0956234041 -0.00100971105 0)
(0.0957550476 -0.00108151345 0)
(0.0958952963 -0.00114686872 0)
(0.096043223 -0.0012052638 0)
(0.0961978198 -0.00125626587 0)
(0.0963580127 -0.00129953603 0)
(0.096522679 -0.00133483944 0)
(0.0966906673 -0.00136205164 0)
(0.096860818 -0.00138116118 0)
(0.0970319841 -0.00139226861 0)
(0.0972030512 -0.00139558201 0)
(0.0973729559 -0.00139140934 0)
(0.097540702 -0.0013801481 0)
(0.097705374 -0.00136227275 0)
(0.097866148 -0.00133832057 0)
(0.098022299 -0.00130887672 0)
(0.0981732051 -0.00127455908 0)
(0.0983183488 -0.00123600355 0)
(0.0984573161 -0.00119385016 0)
(0.0985897925 -0.00114873064 0)
(0.0987155578 -0.00110125743 0)
(0.098834479 -0.00105201456 0)
(0.0989465024 -0.00100155033 0)
(0.0990516448 -0.000950371746 0)
(0.0991499849 -0.000898940719 0)
(0.0992416542 -0.000847671789 0)
(0.0993268287 -0.000796931274 0)
(0.0994057203 -0.000747037588 0)
(0.0994785695 -0.000698262614 0)
(0.0995456381 -0.000650833884 0)
(0.0996072035 -0.000604937331 0)
(0.0996635523 -0.000560720472 0)
(0.0997149762 -0.000518295831 0)
(0.0997617676 -0.000477744407 0)
(0.0998042157 -0.000439119131 0)
(0.0998426038 -0.000402448111 0)
(0.0998772068 -0.000367737529 0)
(0.0999082898 -0.000334974254 0)
(0.0999361086 -0.000304128506 0)
(0.09996091 -0.000275156929 0)
(0.0999829317 -0.000248006058 0)
(0.1000024 -0.00022261563 0)
(0.100019525 -0.000198920954 0)
(0.100034501 -0.000176854042 0)
(0.100047508 -0.000156343892 0)
(0.100058707 -0.000137316739 0)
(0.10006825 -0.000119696693 0)
(0.100076277 -0.000103406749 0)
(0.100082919 -8.83698203e-05 0)
(0.1000883 -7.45095674e-05 0)
(0.100092534 -6.17510348e-05 0)
(0.10009573 -5.0021297e-05 0)
(0.100097987 -3.92502328e-05 0)
(0.100099401 -2.93713164e-05 0)
(0.100100059 -2.03224862e-05 0)
(0.100100035 -1.20470081e-05 0)
(0.100099378 -4.49584679e-06 0)
(0.1000981 2.38417854e-06 0)
(0.100096324 8.58653078e-06 0)
(0.100094212 1.41763665e-05 0)
(0.100091808 1.92099505e-05 0)
(0.100089136 2.37476054e-05 0)
(0.100086208 2.78396125e-05 0)
(0.100083042 3.15241793e-05 0)
(0.100079668 3.48324184e-05 0)
(0.100076112 3.77879846e-05 0)
(0.100072396 4.04105333e-05 0)
(0.100068547 4.2719951e-05 0)
(0.100064585 4.47370823e-05 0)
(0.10006053 4.64824823e-05 0)