/*--------------------------------*- C++ -*----------------------------------*\
| =========                 |                                                 |
| \\      /  F ield         | OpenFOAM: The Open Source CFD Toolbox           |
|  \\    /   O peration     | Version:  v2012                                 |
|   \\  /    A nd           | Website:  www.openfoam.com                      |
|    \\/     M anipulation  |                                                 |
\*---------------------------------------------------------------------------*/
FoamFile
{
    version     2.0;
    format      ascii;
    class       surfaceVectorField;
    location    "2.09";
    object      Uf;
}
// * * * * * * * * * * * * * * * * * * * * * * * * * * * * * * * * * * * * * //

dimensions      [0 1 -1 0 0 0 0];


internalField   nonuniform List<vector> 
56481
(
(0.0999956961 7.15770945e-06 0)
(0.0999987094 9.75546608e-06 0)
(0.0999880484 6.17351705e-06 0)
(0.0999919389 1.66891322e-05 0)
(0.0999811161 -2.76314295e-06 0)
(0.0999825906 1.09994046e-05 0)
(0.0999767424 -1.83869052e-05 0)
(0.0999743975 -5.1154238e-06 0)
(0.0999774506 -3.96311352e-05 0)
(0.0999703716 -3.00808541e-05 0)
(0.0999856898 -6.5647635e-05 0)
(0.0999730591 -6.28996381e-05 0)
(0.100003251 -9.45336898e-05 0)
(0.09998489 -0.000101828907 0)
(0.100031036 -0.00012252295 0)
(0.100007732 -0.000143077427 0)
(0.100068424 -0.000144485978 0)
(0.10004218 -0.000180285951 0)
(0.100113003 -0.000155297278 0)
(0.10008685 -0.00020596442 0)
(0.100160824 -0.00015137794 0)
(0.100138273 -0.000213692397 0)
(0.100207078 -0.000131724397 0)
(0.10019145 -0.00020004466 0)
(0.100246993 -9.80588656e-05 0)
(0.100240812 -0.000165453075 0)
(0.100276724 -5.41896508e-05 0)
(0.100281257 -0.000113844106 0)
(0.100294126 -4.92494722e-06 0)
(0.100309078 -5.14459661e-05 0)
(0.100298596 4.48414098e-05 0)
(0.100322452 1.42244802e-05 0)
(0.100290847 9.03886806e-05 0)
(0.100321102 7.65895922e-05 0)
(0.10027301 0.000127706189 0)
(0.100306395 0.000130376792 0)
(0.100247317 0.000154225316 0)
(0.100281009 0.000171750347 0)
(0.100216216 0.000168816574 0)
(0.100247996 0.000198590287 0)
(0.100182251 0.000171568803 0)
(0.10021053 0.000210321615 0)
(0.100147798 0.000163652548 0)
(0.100171672 0.000207815674 0)
(0.100114907 0.000147220185 0)
(0.100134194 0.000193149901 0)
(0.1000855 0.000125283895 0)
(0.100100483 0.000169099438 0)
(0.100060996 0.000101524912 0)
(0.100072449 0.000139668795 0)
(0.100042041 8.00779962e-05 0)
(0.100051313 0.000109713355 0)
(0.100028169 6.52330712e-05 0)
(0.100037226 8.47856307e-05 0)
(0.100017535 6.09469535e-05 0)
(0.100028915 7.06709172e-05 0)
(0.100006932 7.01866328e-05 0)
(0.100023563 7.24943012e-05 0)
(0.0999922454 9.42512308e-05 0)
(0.10001703 9.35683282e-05 0)
(0.0999692254 0.000132268339 0)
(0.100004455 0.000134397528 0)
(0.0999342612 0.000181120651 0)
(0.0999810945 0.000192250294 0)
(0.0998850097 0.000235979249 0)
(0.0999432086 0.00026152331 0)
(0.0998207486 0.000291352624 0)
(0.0998887574 0.000334908874 0)
(0.0997423591 0.000342333749 0)
(0.0998177127 0.000405070999 0)
(0.0996519364 0.000385650481 0)
(0.099731871 0.000466323231 0)
(0.0995521484 0.000420186601 0)
(0.0996342215 0.000515769815 0)
(0.0994455501 0.000446830059 0)
(0.0995280799 0.000553547263 0)
(0.099334062 0.000467760725 0)
(0.0994162744 0.000582142751 0)
(0.0992187494 0.00048549537 0)
(0.0993006327 0.00060512142 0)
(0.0990999108 0.000502063357 0)
(0.099181887 0.000625795284 0)
(0.098977373 0.000518573814 0)
(0.099059939 0.000646318242 0)
(0.0988508355 0.00053522561 0)
(0.0989343044 0.000667434375 0)
(0.0987201302 0.000551620705 0)
(0.0988045276 0.000688790326 0)
(0.0985853343 0.000567158076 0)
(0.0986704301 0.000709512976 0)
(0.0984467544 0.000581324867 0)
(0.0985321623 0.000728732798 0)
(0.0983048443 0.000593811356 0)
(0.0983901215 0.000745865168 0)
(0.09816012 0.00060448154 0)
(0.0982448285 0.000760637404 0)
(0.0980131089 0.000613281653 0)
(0.0980968328 0.000772967151 0)
(0.0978643365 0.000620159927 0)
(0.0979466741 0.000782819248 0)
(0.0977143361 0.000625030705 0)
(0.097794885 0.000790119536 0)
(0.0975636624 0.000627778149 0)
(0.0976420117 0.000794738798 0)
(0.0974128986 0.000628277578 0)
(0.0974886303 0.000796518846 0)
(0.097262655 0.000626415085 0)
(0.097335351 0.000795306116 0)
(0.0971135627 0.000622097398 0)
(0.0971828124 0.000790972758 0)
(0.0969662659 0.000615253293 0)
(0.0970316727 0.00078342259 0)
(0.0968214148 0.000605831371 0)
(0.0968826004 0.000772588534 0)
(0.0966796596 0.00059379782 0)
(0.0967362672 0.000758428567 0)
(0.0965416455 0.000579135381 0)
(0.0965933421 0.000740923575 0)
(0.0964080066 0.000561843185 0)
(0.0964544858 0.000720077151 0)
(0.0962793599 0.000541936945 0)
(0.0963203447 0.000695916118 0)
(0.0961562992 0.000519449384 0)
(0.096191545 0.000668490912 0)
(0.0960393894 0.00049443123 0)
(0.0960686873 0.000637875685 0)
(0.095929162 0.000466953029 0)
(0.0959523413 0.000604168367 0)
(0.0958261123 0.000437107719 0)
(0.0958430433 0.000567490825 0)
(0.0957306994 0.000405013261 0)
(0.0957412943 0.000527988937 0)
(0.0956433487 0.000370814099 0)
(0.0956475603 0.000485832133 0)
(0.0955644565 0.000334680261 0)
(0.0955622744 0.000441211997 0)
(0.0954943948 0.000296803357 0)
(0.0954858388 0.000394339567 0)
(0.0954335151 0.000257389789 0)
(0.0954186281 0.000345441222 0)
(0.0953821526 0.000216652787 0)
(0.0953609908 0.000294752917 0)
(0.0953406383 0.000174800503 0)
(0.0953132461 0.000242513976 0)
(0.0953093152 0.000132028416 0)
(0.095275694 0.000188955556 0)
(0.0952884931 8.84662417e-05 0)
(0.0952486406 0.000134221202 0)
(0.0952781946 4.41059731e-05 0)
(0.0952322767 7.85240328e-05 0)
(0.0952777158 -7.27643177e-07 0)
(0.0952265006 2.24732077e-05 0)
(0.0952877072 -4.5432118e-05 0)
(0.0952312429 -3.4164973e-05 0)
(0.0953084786 -8.98405218e-05 0)
(0.0952468229 -9.05938877e-05 0)
(0.0953399666 -0.000133960636 0)
(0.0952734478 -0.000146725157 0)
(0.095382013 -0.000177598121 0)
(0.0953109355 -0.000202335524 0)
(0.0954343961 -0.00022050147 0)
(0.0953590775 -0.000257087488 0)
(0.0954968524 -0.000262441581 0)
(0.0954176942 -0.000310689875 0)
(0.0955690535 -0.000303185331 0)
(0.0954865157 -0.000362846087 0)
(0.0956505983 -0.000342484234 0)
(0.0955651732 -0.000413235097 0)
(0.0957410168 -0.000380080364 0)
(0.0956532291 -0.000461526946 0)
(0.0958397763 -0.000415710045 0)
(0.0957501807 -0.00050739112 0)
(0.095946287 -0.000449107033 0)
(0.0958554582 -0.000550499827 0)
(0.0960599106 -0.000480010302 0)
(0.0959684304 -0.000590534837 0)
(0.0961799687 -0.000508175554 0)
(0.0960884154 -0.00062719785 0)
(0.0963057497 -0.0005333873 0)
(0.0962146882 -0.000660221493 0)
(0.0964365143 -0.000555468584 0)
(0.0963464873 -0.00068937895 0)
(0.0965715008 -0.000574287007 0)
(0.0964830212 -0.000714491278 0)
(0.0967099304 -0.000589756939 0)
(0.0966234747 -0.000735432044 0)
(0.0968510148 -0.000601838999 0)
(0.0967670175 -0.000752129459 0)
(0.0969939647 -0.000610538045 0)
(0.0969128138 -0.000764566528 0)
(0.0971379993 -0.00061590061 0)
(0.0970600328 -0.000772779751 0)
(0.0972823565 -0.000618012198 0)
(0.0972078593 -0.00077685676 0)
(0.0974263027 -0.000616994324 0)
(0.0973555055 -0.000776933016 0)
(0.0975691406 -0.000613001118 0)
(0.0975022198 -0.00077318761 0)
(0.097710217 -0.000606215358 0)
(0.0976472956 -0.000765838238 0)
(0.0978489287 -0.000596843928 0)
(0.0977900787 -0.000755135456 0)
(0.0979847267 -0.000585112865 0)
(0.0979299726 -0.00074135641 0)
(0.09811712 -0.000571262141 0)
(0.0980664425 -0.000724798276 0)
(0.0982456772 -0.000555540433 0)
(0.0981990178 -0.000705771623 0)
(0.0983700274 -0.000538200055 0)
(0.0983272934 -0.000684593951 0)
(0.0984898598 -0.000519492277 0)
(0.0984509294 -0.00066158361 0)
(0.0986049229 -0.000499663113 0)
(0.0985696502 -0.000637054283 0)
(0.0987150216 -0.000478949742 0)
(0.0986832417 -0.000611310141 0)
(0.0988200152 -0.000457577496 0)
(0.0987915486 -0.000584641765 0)
(0.0989198132 -0.000435757445 0)
(0.0988944706 -0.000557322817 0)
(0.099014372 -0.000413684504 0)
(0.0989919579 -0.00052960745 0)
(0.0991036903 -0.000391536107 0)
(0.0990840066 -0.000501728429 0)
(0.0991878052 -0.000369471398 0)
(0.0991706542 -0.000473895927 0)
(0.0992667881 -0.000347630977 0)
(0.0992519747 -0.000446296948 0)
(0.0993407398 -0.000326137202 0)
(0.0993280738 -0.000419095377 0)
(0.0994097868 -0.00030509487 0)
(0.0993990842 -0.000392432549 0)
(0.0994740772 -0.000284592177 0)
(0.0994651616 -0.000366428216 0)
(0.0995337763 -0.00026470189 0)
(0.09952648 -0.000341181826 0)
(0.0995890636 -0.000245482567 0)
(0.0995832279 -0.000316773993 0)
(0.0996401287 -0.000226979817 0)
(0.0996356046 -0.000293268062 0)
(0.0996871688 -0.000209227582 0)
(0.099683817 -0.000270711754 0)
(0.0997303857 -0.000192249401 0)
(0.0997280765 -0.000249138851 0)
(0.0997699837 -0.000176059762 0)
(0.0997685966 -0.000228570904 0)
(0.0998061673 -0.000160665545 0)
(0.0998055907 -0.000209018955 0)
(0.0998391397 -0.000146067638 0)
(0.0998392696 -0.000190485225 0)
(0.0998691005 -0.000132262618 0)
(0.0998698401 -0.00017296469 0)
(0.0998962437 -0.000119244172 0)
(0.0998975033 -0.000156446458 0)
(0.0999207551 -0.00010700379 0)
(0.0999224522 -0.000140914832 0)
(0.0999428103 -9.55304828e-05 0)
(0.0999448709 -0.000126349954 0)
(0.0999625733 -8.48097721e-05 0)
(0.0999649335 -0.000112727992 0)
(0.0999801967 -7.48224141e-05 0)
(0.0999828029 -0.000100020817 0)
(0.0999958233 -6.55436105e-05 0)
(0.0999986321 -8.81951887e-05 0)
(0.100009589 -5.69432143e-05 0)
(0.100012565 -7.72129033e-05 0)
(0.100021622 -4.89867319e-05 0)
(0.100024739 -6.70315736e-05 0)
(0.100032047 -4.16366894e-05 0)
(0.100035282 -5.76057705e-05 0)
(0.100040984 -3.48539025e-05 0)
(0.10004432 -4.88883352e-05 0)
(0.100048546 -2.85983291e-05 0)
(0.100051971 -4.0831446e-05 0)
(0.100054843 -2.28294279e-05 0)
(0.100058347 -3.33872958e-05 0)
(0.100059981 -1.75062153e-05 0)
(0.100063557 -2.65085215e-05 0)
(0.10006406 -1.25871858e-05 0)
(0.100067704 -2.01486347e-05 0)
(0.10006718 -8.03083551e-06 0)
(0.100070889 -1.42620974e-05 0)
(0.100069442 -3.79394614e-06 0)
(0.10007321 -8.80447668e-06 0)
(0.100070987 1.58861748e-07 0)
(0.100074776 -3.74597993e-06 0)
(0.100071847 3.86189871e-06 0)
(0.100075685 8.59402415e-07 0)
(0.100071972 7.37991549e-06 0)
(0.100075956 5.16891066e-06 0)
(0.100071588 1.07439727e-05 0)
(0.100075629 9.13397533e-06 0)
(0.100070829 1.39130883e-05 0)
(0.100074827 1.28078113e-05 0)
(0.10006976 1.68409458e-05 0)
(0.100073648 1.62043856e-05 0)
(0.100068409 1.95011084e-05 0)
(0.100072145 1.93241746e-05 0)
(0.100066793 2.18814669e-05 0)
(0.100070352 2.21563985e-05 0)
(0.100064921 2.39820376e-05 0)
(0.100068298 2.46983058e-05 0)
(0.100062801 2.58139201e-05 0)
(0.100066003 2.6956182e-05 0)
(0.100060443 2.73956591e-05 0)
(0.100063483 2.89424203e-05 0)
(0.100057858 2.87495529e-05 0)
(0.100060755 3.06738333e-05 0)
(0.100055064 2.98989769e-05 0)
(0.100057833 3.21698934e-05 0)
(0.10005208 3.08665495e-05 0)
(0.100054736 3.34510369e-05 0)
(0.100048926 3.16730107e-05 0)
(0.100051482 3.4537413e-05 0)
(0.100045624 3.23366949e-05 0)
(0.10004809 3.54480454e-05 0)
(0.100042196 3.28734096e-05 0)
(0.100044578 3.62003396e-05 0)
(0.100038661 3.3296547e-05 0)
(0.100040964 3.68098848e-05 0)
(0.100035039 3.36172929e-05 0)
(0.100037267 3.72904424e-05 0)
(0.100031347 3.38448814e-05 0)
(0.100033501 3.76539815e-05 0)
(0.100027601 3.39868939e-05 0)
(0.100029683 3.79108289e-05 0)
(0.100023814 3.40495933e-05 0)
(0.100025825 3.80699033e-05 0)
(0.100019999 3.40382778e-05 0)
(0.100021939 3.81389746e-05 0)
(0.100016165 3.39576279e-05 0)
(0.100018036 3.81249245e-05 0)
(0.100012322 3.38120109e-05 0)
(0.100014125 3.80339906e-05 0)
(0.100008475 3.36057144e-05 0)
(0.100010212 3.78719738e-05 0)
(0.100004633 3.33430929e-05 0)
(0.100006304 3.76443965e-05 0)
(0.100000798 3.30286249e-05 0)
(0.100002408 3.73566022e-05 0)
(0.0999969773 3.26668925e-05 0)
(0.0999985275 3.70138014e-05 0)
(0.0999931737 3.22625103e-05 0)
(0.0999946675 3.66210714e-05 0)
(0.0999893913 3.18200304e-05 0)
(0.0999908316 3.61833276e-05 0)
(0.0999856341 3.13438637e-05 0)
(0.0999870238 3.57052886e-05 0)
(0.0999819054 3.08381751e-05 0)
(0.0999832473 3.51914617e-05 0)
(0.0999782087 3.03067424e-05 0)
(0.0999795052 3.46459845e-05 0)
(0.0999745474 2.97528902e-05 0)
(0.0999758004 3.40725928e-05 0)
(0.0999709244 2.91795163e-05 0)
(0.0999721356 3.34746601e-05 0)
(0.0999673425 2.85891377e-05 0)
(0.0999685134 3.28551926e-05 0)
(0.0999638043 2.79839261e-05 0)
(0.0999649359 3.22168405e-05 0)
(0.0999603121 2.73657374e-05 0)
(0.0999614053 3.15619152e-05 0)
(0.099956868 2.67361675e-05 0)
(0.0999579235 3.08924078e-05 0)
(0.0999534736 2.6096546e-05 0)
(0.0999544925 3.02100787e-05 0)
(0.0999501307 2.54483033e-05 0)
(0.0999511122 2.95162904e-05 0)
(0.0999468408 2.47918188e-05 0)
(0.0999477906 2.88126059e-05 0)
(0.0999436065 2.41314282e-05 0)
(0.0999445069 2.8096916e-05 0)
(0.0999404312 2.34530686e-05 0)
(0.0999413407 2.73786059e-05 0)
(0.0999373215 2.28140738e-05 0)
(0.0999380369 2.66169297e-05 0)
(0.0999342846 2.19530793e-05 0)
(0.099935516 2.59685956e-05 0)
(0.0999309024 2.47250104e-05 0)
(0.099995673 1.79762771e-05 0)
(0.0999987441 1.47380379e-05 0)
(0.0999862223 2.02320845e-05 0)
(0.0999917997 2.75717901e-05 0)
(0.0999759056 7.65149293e-06 0)
(0.0999815735 2.2879212e-05 0)
(0.0999683289 -1.74552519e-05 0)
(0.0999719589 3.60934301e-06 0)
(0.0999661566 -5.3264041e-05 0)
(0.0999666941 -2.75794207e-05 0)
(0.0999723186 -9.80600217e-05 0)
(0.0999686331 -6.99953532e-05 0)
(0.099989378 -0.000148507864 0)
(0.0999802106 -0.000121473078 0)
(0.100018874 -0.000198279788 0)
(0.100003502 -0.000177042228 0)
(0.100060581 -0.000238728515 0)
(0.100039326 -0.000228312746 0)
(0.100112054 -0.000261123187 0)
(0.100086419 -0.000265236571 0)
(0.100168796 -0.000259226353 0)
(0.100141263 -0.000279030925 0)
(0.100225044 -0.000231053695 0)
(0.100198609 -0.000264815159 0)
(0.100274893 -0.000179228042 0)
(0.100252492 -0.000222854559 0)
(0.100313392 -0.000110034226 0)
(0.100297353 -0.000158177089 0)
(0.100337315 -3.18127229e-05 0)
(0.100328978 -7.89932642e-05 0)
(0.100345078 4.65539177e-05 0)
(0.100344869 5.28572552e-06 0)
(0.100336576 0.000117483774 0)
(0.100344756 8.63787802e-05 0)
(0.100314309 0.000175525926 0)
(0.100330196 0.000156017866 0)
(0.100281586 0.000217141306 0)
(0.100303704 0.000209431421 0)
(0.100242191 0.000240794933 0)
(0.100268593 0.000243953969 0)
(0.100199811 0.000246741307 0)
(0.100228499 0.000259123374 0)
(0.100157891 0.000236687336 0)
(0.100186963 0.000256087309 0)
(0.10011956 0.000213555472 0)
(0.100147202 0.000237288565 0)
(0.100087217 0.00018140876 0)
(0.100111985 0.000206342697 0)
(0.100062577 0.000145436462 0)
(0.100083465 0.000168042017 0)
(0.100046331 0.000111871975 0)
(0.100062974 0.000128421461 0)
(0.100037803 8.7633791e-05 0)
(0.100050715 9.46052983e-05 0)
(0.100034754 7.94815756e-05 0)
(0.100045407 7.41819308e-05 0)
(0.100033445 9.27252339e-05 0)
(0.100044106 7.40019376e-05 0)
(0.100028996 0.00012984679 0)
(0.100042385 9.86914478e-05 0)
(0.100016058 0.000189560553 0)
(0.100034935 0.000149295816 0)
(0.09998976 0.000266747152 0)
(0.100016474 0.000222532338 0)
(0.0999466673 0.000353413032 0)
(0.0999827252 0.000311145197 0)
(0.099885435 0.000440477307 0)
(0.0999312142 0.000405418881 0)
(0.099806948 0.000519877754 0)
(0.0998616811 0.000495449941 0)
(0.0997138925 0.000586336545 0)
(0.0997759441 0.000573478046 0)
(0.0996099014 0.00063821977 0)
(0.0996772471 0.000635517071 0)
(0.0994985619 0.000677251535 0)
(0.0995693034 0.00068175635 0)
(0.0993826092 0.000707279244 0)
(0.0994553552 0.000715664125 0)
(0.0992635391 0.000732634971 0)
(0.0993375465 0.000742232402 0)
(0.0991416891 0.000756733148 0)
(0.0992167671 0.000766107332 0)
(0.0990166516 0.000781352032 0)
(0.0990929212 0.000790300815 0)
(0.098887788 0.000806684291 0)
(0.0989654246 0.000815822729 0)
(0.0987546326 0.000831909602 0)
(0.0988336894 0.000842120812 0)
(0.0986170794 0.000855896589 0)
(0.0986974266 0.000867907513 0)
(0.098475369 0.000877712611 0)
(0.0985567233 0.000891914491 0)
(0.0983299651 0.000896815804 0)
(0.0984119579 0.000913299981 0)
(0.0981814218 0.00091299045 0)
(0.0982636603 0.000931687229 0)
(0.0980303009 0.000926174972 0)
(0.0981123991 0.000946985127 0)
(0.0978771488 0.000936313854 0)
(0.0979587322 0.000959176153 0)
(0.0977225111 0.000943291648 0)
(0.0978032086 0.000968187239 0)
(0.097566955 0.000946939184 0)
(0.0976463907 0.000973863933 0)
(0.0974110834 0.000947071608 0)
(0.0974888739 0.000976007392 0)
(0.0972555343 0.000943523184 0)
(0.0973312924 0.000974423199 0)
(0.0971009733 0.00093616436 0)
(0.0971743136 0.000968952159 0)
(0.0969480823 0.000924903686 0)
(0.0970186279 0.000959478836 0)
(0.0967975511 0.000909683423 0)
(0.0968649378 0.00094592745 0)
(0.0966500697 0.000890475568 0)
(0.0967139504 0.00092825558 0)
(0.0965063225 0.00086728051 0)
(0.0965663702 0.000906450725 0)
(0.096366982 0.000840127454 0)
(0.0964228933 0.00088052979 0)
(0.0962327037 0.000809075132 0)
(0.0962842011 0.00085053955 0)
(0.0961041203 0.000774211868 0)
(0.0961509543 0.000816556642 0)
(0.0959818371 0.000735654842 0)
(0.0960237867 0.00077868669 0)
(0.0958664286 0.000693548659 0)
(0.0959033006 0.000737062946 0)
(0.0957584368 0.000648063334 0)
(0.0957900628 0.000691844976 0)
(0.0956583698 0.000599391759 0)
(0.0956846027 0.000643217607 0)
(0.0955667013 0.000547746887 0)
(0.0955874117 0.000591389832 0)
(0.0954838704 0.000493358973 0)
(0.0954989449 0.000536593045 0)
(0.0954102818 0.000436472808 0)
(0.095419623 0.000479077967 0)
(0.0953463061 0.000377344791 0)
(0.0953498348 0.000419110209 0)
(0.0952922793 0.000316239503 0)
(0.0952899384 0.000356965545 0)
(0.0952485014 0.000253425728 0)
(0.0952402574 0.000292924822 0)
(0.0952152259 0.000189166407 0)
(0.0952010851 0.00022727287 0)
(0.0951925865 0.000123673436 0)
(0.0951726693 0.000160290791 0)
(0.0951806903 5.71152129e-05 0)
(0.0951551474 9.22226315e-05 0)
(0.0951800982 -1.01015594e-05 0)
(0.0951486704 2.31550486e-05 0)
(0.0951904592 -7.7367202e-05 0)
(0.0951533768 -4.60957561e-05 0)
(0.0952119485 -0.000144323931 0)
(0.0951692983 -0.000115339179 0)
(0.0952445139 -0.000210762633 0)
(0.0951964902 -0.000184224702 0)
(0.0952880539 -0.000276347156 0)
(0.0952349319 -0.00025247247 0)
(0.0953424279 -0.000340696483 0)
(0.0952844719 -0.000319700038 0)
(0.0954074037 -0.000403444147 0)
(0.0953449124 -0.000385510394 0)
(0.0954826648 -0.000464212763 0)
(0.0954159914 -0.00044951045 0)
(0.09556782 -0.000522608247 0)
(0.0954973566 -0.000511292577 0)
(0.0956624013 -0.000578233585 0)
(0.0955885734 -0.000570438698 0)
(0.0957658655 -0.000630699442 0)
(0.0956891339 -0.000626531757 0)
(0.0958776005 -0.000679631791 0)
(0.0957984568 -0.0006791643 0)
(0.0959969321 -0.000724680844 0)
(0.0959158903 -0.000727947023 0)
(0.0961231322 -0.000765530458 0)
(0.0960407191 -0.00077251916 0)
(0.0962554257 -0.00080190665 0)
(0.0961721725 -0.000812559424 0)
(0.0963929983 -0.000833584649 0)
(0.0963094314 -0.000847795866 0)
(0.0965350048 -0.000860394685 0)
(0.0964516374 -0.000878013872 0)
(0.0966805782 -0.000882226357 0)
(0.0965979025 -0.000903062027 0)
(0.0968288405 -0.000899031353 0)
(0.0967473205 -0.000922855667 0)
(0.0969789138 -0.000910824267 0)
(0.0968989793 -0.000937378195 0)
(0.0971299327 -0.000917681457 0)
(0.0970519743 -0.000946680317 0)
(0.0972810559 -0.000919738128 0)
(0.0972054204 -0.000950877463 0)
(0.0974314774 -0.000917183847 0)
(0.097358465 -0.00095014561 0)
(0.0975804361 -0.000910256817 0)
(0.0975102988 -0.000944715696 0)
(0.0977272241 -0.000899237202 0)
(0.0976601653 -0.000934866868 0)
(0.0978711939 -0.000884439797 0)
(0.097807369 -0.000920918836 0)
(0.0980117628 -0.000866206324 0)
(0.0979512812 -0.000903223644 0)
(0.0981484166 -0.000844897599 0)
(0.0980913442 -0.000882157156 0)
(0.098280711 -0.000820885843 0)
(0.098227074 -0.000858110589 0)
(0.0984082719 -0.000794547337 0)
(0.0983580608 -0.000831482336 0)
(0.0985307947 -0.000766255693 0)
(0.098483968 -0.000802670387 0)
(0.0986480412 -0.000736375767 0)
(0.0986045306 -0.000772065459 0)
(0.0987598373 -0.000705258485 0)
(0.0987195513 -0.000740045041 0)
(0.0988660684 -0.000673236489 0)
(0.0988288969 -0.00070696838 0)
(0.0989666746 -0.000640620719 0)
(0.098932493 -0.000673172462 0)
(0.0990616465 -0.000607697846 0)
(0.0990303187 -0.000638968947 0)
(0.0991510189 -0.000574728585 0)
(0.0991224014 -0.000604642053 0)
(0.0992348661 -0.000541946729 0)
(0.0992088107 -0.000570447313 0)
(0.0993132968 -0.000509558854 0)
(0.0992896527 -0.000536611092 0)
(0.0993864487 -0.000477744676 0)
(0.0993650651 -0.000503330829 0)
(0.0994544837 -0.000446657864 0)
(0.0994352114 -0.000470775849 0)
(0.0995175835 -0.000416427264 0)
(0.0995002762 -0.0004390886 0)
(0.0995759452 -0.000387158483 0)
(0.0995604607 -0.00040838627 0)
(0.0996297775 -0.000358935658 0)
(0.0996159783 -0.000378762665 0)
(0.0996792968 -0.000331823373 0)
(0.0996670512 -0.000350290227 0)
(0.0997247242 -0.000305868715 0)
(0.0997139065 -0.000323022129 0)
(0.0997662829 -0.000281103317 0)
(0.0997567736 -0.000296994359 0)
(0.0998041955 -0.000257545425 0)
(0.0997958815 -0.000272227758 0)
(0.0998386814 -0.000235201808 0)
(0.0998314568 -0.000248730003 0)
(0.0998699553 -0.000214069449 0)
(0.0998637218 -0.0002264976 0)
(0.0998982252 -0.000194136852 0)
(0.0998928933 -0.000205517892 0)
(0.0999236912 -0.000175385103 0)
(0.0999191805 -0.000185771 0)
(0.0999465451 -0.000157788845 0)
(0.0999427841 -0.000167231394 0)
(0.0999669693 -0.000141317195 0)
(0.0999638947 -0.000149868751 0)
(0.0999851369 -0.000125934487 0)
(0.0999826918 -0.00013364819 0)
(0.100001211 -0.000111600647 0)
(0.0999993438 -0.000118530252 0)
(0.100015345 -9.82713947e-05 0)
(0.100014009 -0.00010447091 0)
(0.100027684 -8.58987143e-05 0)
(0.100026834 -9.14219664e-05 0)
(0.100038366 -7.4431565e-05 0)
(0.10003796 -7.93318924e-05 0)
(0.10004752 -6.3816773e-05 0)
(0.100047518 -6.81469089e-05 0)
(0.10005527 -5.40000037e-05 0)
(0.100055634 -5.78121241e-05 0)
(0.100061732 -4.49266283e-05 0)
(0.100062426 -4.82725683e-05 0)
(0.100067018 -3.65423632e-05 0)
(0.100068006 -3.94740349e-05 0)
(0.100071234 -2.87938686e-05 0)
(0.100072481 -3.13636885e-05 0)
(0.100074484 -2.16295603e-05 0)
(0.100075953 -2.38906543e-05 0)
(0.100076868 -1.5001407e-05 0)
(0.100078519 -1.70069028e-05 0)
(0.100078488 -8.86797809e-06 0)
(0.10008027 -1.0670315e-05 0)
(0.10007945 -3.20700209e-06 0)
(0.10008129 -4.85405308e-06 0)
(0.100079829 1.96001841e-06 0)
(0.100081629 4.23501148e-07 0)
(0.100079596 6.66960065e-06 0)
(0.100081373 5.43733613e-06 0)
(0.100078847 1.10148544e-05 0)
(0.100080626 9.9965599e-06 0)
(0.100077631 1.50322374e-05 0)
(0.100079446 1.42072615e-05 0)
(0.100076014 1.87260044e-05 0)
(0.100077894 1.80668918e-05 0)
(0.100074063 2.2095326e-05 0)
(0.100076017 2.15705704e-05 0)
(0.10007183 2.5142734e-05 0)
(0.100073854 2.47275293e-05 0)
(0.100069352 2.7875511e-05 0)
(0.100071437 2.7551981e-05 0)
(0.100066657 3.03049329e-05 0)
(0.100068793 3.00596404e-05 0)
(0.100063767 3.24461334e-05 0)
(0.100065941 3.22695995e-05 0)
(0.100060703 3.43172883e-05 0)
(0.100062902 3.4203087e-05 0)
(0.100057479 3.59381312e-05 0)
(0.100059692 3.58816438e-05 0)
(0.100054114 3.73287621e-05 0)
(0.10005633 3.73265332e-05 0)
(0.100050622 3.85088732e-05 0)
(0.100052834 3.85582002e-05 0)
(0.10004702 3.94972426e-05 0)
(0.100049221 3.95957813e-05 0)
(0.100043323 4.03114435e-05 0)
(0.100045508 4.04568731e-05 0)
(0.100039548 4.09677229e-05 0)
(0.100041713 4.11575224e-05 0)
(0.100035708 4.14808573e-05 0)
(0.100037851 4.17123526e-05 0)
(0.100031817 4.18640401e-05 0)
(0.100033936 4.21344467e-05 0)
(0.100027888 4.2128956e-05 0)
(0.100029981 4.24354166e-05 0)
(0.100023931 4.22859574e-05 0)
(0.100025999 4.26255474e-05 0)
(0.100019958 4.23442602e-05 0)
(0.100022 4.27139797e-05 0)
(0.100015978 4.23121388e-05 0)
(0.100017993 4.270892e-05 0)
(0.100011997 4.2197108e-05 0)
(0.100013986 4.26178507e-05 0)
(0.100008023 4.20060785e-05 0)
(0.100009986 4.24477111e-05 0)
(0.100004063 4.17454824e-05 0)
(0.100005998 4.2205038e-05 0)
(0.10000012 4.14213616e-05 0)
(0.100002029 4.18960548e-05 0)
(0.0999962014 4.10394217e-05 0)
(0.0999980823 4.15267138e-05 0)
(0.0999923094 4.06050524e-05 0)
(0.099994162 4.11026986e-05 0)
(0.0999884484 4.01233202e-05 0)
(0.0999902718 4.06293963e-05 0)
(0.0999846216 3.95989304e-05 0)
(0.0999864149 4.01118803e-05 0)
(0.0999808319 3.90362405e-05 0)
(0.0999825944 3.95552947e-05 0)
(0.0999770819 3.84393268e-05 0)
(0.0999788131 3.89641687e-05 0)
(0.0999733739 3.78119781e-05 0)
(0.0999750734 3.83424239e-05 0)
(0.0999697101 3.71576402e-05 0)
(0.0999713776 3.76936354e-05 0)
(0.0999660924 3.64793929e-05 0)
(0.099967728 3.70210029e-05 0)
(0.0999625227 3.57799615e-05 0)
(0.0999641263 3.63273728e-05 0)
(0.0999590027 3.50617274e-05 0)
(0.0999605743 3.56152468e-05 0)
(0.0999555339 3.432677e-05 0)
(0.0999570733 3.48867691e-05 0)
(0.0999521178 3.35767984e-05 0)
(0.0999536253 3.41437854e-05 0)
(0.0999487559 3.2813543e-05 0)
(0.0999502295 3.33875644e-05 0)
(0.0999454497 3.20372229e-05 0)
(0.099946894 3.26197743e-05 0)
(0.0999422003 3.12524789e-05 0)
(0.0999435971 3.18386219e-05 0)
(0.0999390078 3.04434117e-05 0)
(0.099940418 3.10548349e-05 0)
(0.0999358713 2.96750848e-05 0)
(0.0999370992 3.02286189e-05 0)
(0.099932777 2.86630144e-05 0)
(0.0999345648 2.9531737e-05 0)
(0.0999299305 2.82472486e-05 0)
(0.0999957496 2.48699883e-05 0)
(0.0999986878 1.96324354e-05 0)
(0.0999869342 3.07167175e-05 0)
(0.0999914925 3.77228687e-05 0)
(0.0999775002 1.90549445e-05 0)
(0.0999809635 3.37426536e-05 0)
(0.099970456 -7.10244413e-06 0)
(0.0999711301 1.17207962e-05 0)
(0.0999693514 -4.59477543e-05 0)
(0.0999657757 -2.63075167e-05 0)
(0.0999765589 -9.59121784e-05 0)
(0.0999677813 -7.82948957e-05 0)
(0.0999943185 -0.000153327988 0)
(0.0999797279 -0.000141923438 0)
(0.100023945 -0.000211078754 0)
(0.10000377 -0.000211157758 0)
(0.100065144 -0.000259292879 0)
(0.100040752 -0.000275754378 0)
(0.100115576 -0.000287807011 0)
(0.100089432 -0.000323309148 0)
(0.100170993 -0.000289162069 0)
(0.100146265 -0.000342844545 0)
(0.100225953 -0.000260724304 0)
(0.100205908 -0.000328102518 0)
(0.100274834 -0.000205179245 0)
(0.10026223 -0.000279141934 0)
(0.100312806 -0.000129521959 0)
(0.100309463 -0.000201902178 0)
(0.100336559 -4.32373097e-05 0)
(0.100343144 -0.000106345457 0)
(0.100344343 4.38590563e-05 0)
(0.100360747 -3.67730637e-06 0)
(0.100338339 0.000123150209 0)
(0.100361939 9.3292104e-05 0)
(0.100319521 0.000188078702 0)
(0.100348156 0.000177687848 0)
(0.100290604 0.000234621175 0)
(0.100321991 0.00024272962 0)
(0.100254777 0.000261120025 0)
(0.100286829 0.000285209048 0)
(0.100215508 0.00026788882 0)
(0.100246426 0.000304341833 0)
(0.100176104 0.000256774268 0)
(0.100204488 0.00030146137 0)
(0.100139482 0.000230845632 0)
(0.100164417 0.000279459783 0)
(0.100108071 0.000194337115 0)
(0.100129157 0.000242512608 0)
(0.100083671 0.000152795687 0)
(0.100101034 0.000196139526 0)
(0.100067159 0.000113131502 0)
(0.100081496 0.00014743531 0)
(0.100058121 8.32340389e-05 0)
(0.100070778 0.000105012665 0)
(0.100054554 7.09730554e-05 0)
(0.100067547 7.82888719e-05 0)
(0.100052824 8.27027455e-05 0)
(0.100068761 7.59943584e-05 0)
(0.100048081 0.000121669033 0)
(0.100069871 0.000104152817 0)
(0.100035094 0.000186845516 0)
(0.100065411 0.000164251013 0)
(0.100009172 0.000272698432 0)
(0.100049889 0.000252381233 0)
(0.0999669995 0.000370150401 0)
(0.100018801 0.000359708104 0)
(0.0999071875 0.000468589628 0)
(0.0999694775 0.000474293265 0)
(0.0998304095 0.000558363453 0)
(0.0999015247 0.00058386099 0)
(0.0997390388 0.000632973657 0)
(0.0998166954 0.00067869281 0)
(0.0996363971 0.000690250043 0)
(0.0997182384 0.000753710513 0)
(0.0995258515 0.000732138697 0)
(0.0996099316 0.000809051289 0)
(0.0994100531 0.000763278135 0)
(0.0994951203 0.000849007735 0)
(0.0992905406 0.000789003211 0)
(0.0993760639 0.000879852829 0)
(0.0991677717 0.000813579755 0)
(0.0992537527 0.000907477635 0)
(0.0990414751 0.000839261253 0)
(0.0991281584 0.000935733282 0)
(0.0989111179 0.000866310422 0)
(0.0989987244 0.000965931056 0)
(0.0987762889 0.000893697835 0)
(0.0988648566 0.000997378403 0)
(0.0986368919 0.000919987038 0)
(0.0987262398 0.00102842534 0)
(0.0984931516 0.000943990736 0)
(0.0985829304 0.0010574336 0)
(0.0983455122 0.000965025961 0)
(0.0984352838 0.00108330895 0)
(0.0981945177 0.000982837082 0)
(0.0982838184 0.00110555974 0)
(0.0980407328 0.000997374906 0)
(0.0981291045 0.00112407079 0)
(0.0978847178 0.00100860239 0)
(0.0979717112 0.00113882978 0)
(0.0977270383 0.00101640521 0)
(0.0978122053 0.00114975756 0)
(0.0975682845 0.00102059686 0)
(0.0976511712 0.00115667136 0)
(0.097409083 0.0010209668 0)
(0.0974892302 0.00115933035 0)
(0.097250097 0.00101732548 0)
(0.0973270459 0.00115749801 0)
(0.0970920184 0.00100952684 0)
(0.0971653182 0.00115098203 0)
(0.0969355577 0.000997470768 0)
(0.0970047729 0.00113964568 0)
(0.0967814346 0.00098109718 0)
(0.0968461502 0.00112340261 0)
(0.0966303701 0.000960380223 0)
(0.0966901957 0.00110220861 0)
(0.0964830804 0.000935325766 0)
(0.0965376529 0.00107605706 0)
(0.09634027 0.000905971002 0)
(0.0963892558 0.00104497817 0)
(0.0962026252 0.000872384272 0)
(0.0962457224 0.00100903962 0)
(0.0960708077 0.000834664134 0)
(0.0961077476 0.000968346517 0)
(0.0959454481 0.000792937827 0)
(0.0959759978 0.000923040116 0)
(0.0958271409 0.000747359815 0)
(0.0958511061 0.000873295484 0)
(0.0957164403 0.000698110938 0)
(0.0957336689 0.000819318369 0)
(0.0956138592 0.000645397952 0)
(0.0956242446 0.00076134132 0)
(0.0955198706 0.00058945253 0)
(0.0955233525 0.00069961922 0)
(0.0954349113 0.000530528822 0)
(0.0954314722 0.000634424942 0)
(0.0953593866 0.000468899057 0)
(0.0953490447 0.00056604581 0)
(0.0952936726 0.000404847968 0)
(0.0952764725 0.000494780882 0)
(0.0952381167 0.000338667262 0)
(0.0952141212 0.000420938981 0)
(0.0951930354 0.000270654226 0)
(0.0951623205 0.000344836585 0)
(0.0951587109 0.000201106113 0)
(0.0951213631 0.000266798095 0)
(0.0951353889 0.000130330584 0)
(0.0950915078 0.00018714642 0)
(0.0951232331 5.87031575e-05 0)
(0.0950729725 0.000106220215 0)
(0.0951220931 -1.34609753e-05 0)
(0.0950658501 2.44677764e-05 0)
(0.0951323105 -8.59020677e-05 0)
(0.0950702244 -5.78612571e-05 0)
(0.0951539361 -0.000158251404 0)
(0.0950862516 -0.000140241349 0)
(0.095187002 -0.00023012338 0)