/*--------------------------------*- C++ -*----------------------------------*\
| =========                 |                                                 |
| \\      /  F ield         | OpenFOAM: The Open Source CFD Toolbox           |
|  \\    /   O peration     | Version:  v2012                                 |
|   \\  /    A nd           | Website:  www.openfoam.com                      |
|    \\/     M anipulation  |                                                 |
\*---------------------------------------------------------------------------*/
FoamFile
{
    version     2.0;
    format      ascii;
    class       volVectorField;
    location    "2.24";
    object      H;
}
// * * * * * * * * * * * * * * * * * * * * * * * * * * * * * * * * * * * * * //

dimensions      [0 1 -2 0 0 0 0];


internalField   nonuniform List<vector> 
28416
(
(147.122041 0.0200558114 0)
(147.095522 0.0563484601 0)
(147.052535 0.0845704017 0)
(146.995949 0.100601078 0)
(146.933419 0.102303584 0)
(146.871138 0.0906346526 0)
(146.813793 0.0678004627 0)
(146.765858 0.0354272914 0)
(146.7319 -0.00576615619 0)
(146.711597 -0.055077415 0)
(146.701868 -0.104258516 0)
(146.704392 -0.143947975 0)
(146.717943 -0.166450671 0)
(146.737844 -0.166072863 0)
(146.758099 -0.140805662 0)
(146.772482 -0.0930023621 0)
(146.777083 -0.0284554383 0)
(146.769697 0.0430556267 0)
(146.744202 0.113345208 0)
(146.698948 0.177476988 0)
(146.63867 0.230419533 0)
(146.567956 0.268112647 0)
(146.490823 0.288575933 0)
(146.411456 0.291717518 0)
(146.333885 0.279049073 0)
(146.261708 0.25349525 0)
(146.197997 0.219184375 0)
(146.145052 0.181274416 0)
(146.103972 0.145762006 0)
(146.074216 0.119082484 0)
(146.053291 0.107371957 0)
(146.036809 0.115456506 0)
(146.019086 0.145772234 0)
(145.994121 0.197506532 0)
(145.956618 0.26638406 0)
(145.902881 0.345383169 0)
(145.831416 0.426253228 0)
(145.743053 0.501388558 0)
(145.640511 0.565471157 0)
(145.527512 0.616374115 0)
(145.407769 0.655075734 0)
(145.284157 0.684694176 0)
(145.158307 0.709076251 0)
(145.030654 0.731496784 0)
(144.900822 0.753895992 0)
(144.768126 0.776787581 0)
(144.63199 0.799673178 0)
(144.492163 0.821641004 0)
(144.34873 0.841852681 0)
(144.202008 0.85977194 0)
(144.052417 0.875154617 0)
(143.900396 0.887915548 0)
(143.746367 0.897992399 0)
(143.590755 0.905272358 0)
(143.434008 0.909585931 0)
(143.276616 0.910737308 0)
(143.119121 0.908538318 0)
(142.962105 0.902828555 0)
(142.806192 0.893480619 0)
(142.65203 0.880397427 0)
(142.500294 0.863508343 0)
(142.351674 0.842767185 0)
(142.206873 0.818152104 0)
(142.0666 0.78966634 0)
(141.931562 0.757339365 0)
(141.802457 0.721228575 0)
(141.679969 0.681421808 0)
(141.564767 0.63804053 0)
(141.457498 0.591242571 0)
(141.358797 0.54122303 0)
(141.269288 0.48821175 0)
(141.189587 0.432467557 0)
(141.120304 0.374268602 0)
(141.062037 0.313899695 0)
(141.015376 0.251642082 0)
(140.980936 0.187753661 0)
(140.959209 0.122352619 0)
(140.949932 0.0555553662 0)
(140.95332 -0.0117257923 0)
(140.972032 -0.0786534676 0)
(141.005536 -0.145603803 0)
(141.053341 -0.212517577 0)
(141.115149 -0.278977696 0)
(141.190932 -0.344598059 0)
(141.28049 -0.409003794 0)
(141.383461 -0.471788803 0)
(141.499401 -0.532531763 0)
(141.627758 -0.590802107 0)
(141.767862 -0.646157993 0)
(141.918936 -0.698152059 0)
(142.080115 -0.746345131 0)
(142.250453 -0.790323886 0)
(142.428935 -0.82971932 0)
(142.614488 -0.864222577 0)
(142.805987 -0.893595659 0)
(143.00227 -0.917676452 0)
(143.20215 -0.936379254 0)
(143.404425 -0.949692657 0)
(143.607903 -0.95767616 0)
(143.811415 -0.960456079 0)
(144.013828 -0.958220816 0)
(144.214072 -0.951215226 0)
(144.411139 -0.93973386 0)
(144.604106 -0.92411321 0)
(144.792134 -0.904723118 0)
(144.974478 -0.881957796 0)
(145.150493 -0.856226728 0)
(145.319629 -0.827945939 0)
(145.481438 -0.797529854 0)
(145.635564 -0.765384057 0)
(145.781746 -0.731899057 0)
(145.919808 -0.697445162 0)
(146.049656 -0.662368349 0)
(146.171266 -0.626987069 0)
(146.284683 -0.591589905 0)
(146.390005 -0.55643385 0)
(146.487376 -0.521742686 0)
(146.576981 -0.487704031 0)
(146.659058 -0.454469196 0)
(146.733893 -0.422162455 0)
(146.80181 -0.390886495 0)
(146.863148 -0.360724791 0)
(146.91826 -0.331742901 0)
(146.967497 -0.303989619 0)
(147.011215 -0.277498322 0)
(147.049764 -0.252288547 0)
(147.083488 -0.228367799 0)
(147.112722 -0.205733474 0)
(147.137788 -0.184374127 0)
(147.158991 -0.164268688 0)
(147.176626 -0.145388009 0)
(147.190971 -0.127696835 0)
(147.202289 -0.111153624 0)
(147.210829 -0.095709489 0)
(147.216826 -0.08130748 0)
(147.220509 -0.0678830837 0)
(147.222103 -0.0553662291 0)
(147.221835 -0.0436839729 0)
(147.219939 -0.0327598496 0)
(147.216676 -0.0225126593 0)
(147.212378 -0.0129018942 0)
(147.207636 -0.00411840694 0)
(147.202381 0.00330072456 0)
(147.195875 0.00968533186 0)
(147.187998 0.0152938181 0)
(147.178903 0.0203621103 0)
(147.16891 0.025033201 0)
(147.158277 0.0293554417 0)
(147.147159 0.0333466529 0)
(147.135669 0.0370141273 0)
(147.123903 0.0403566192 0)
(147.111939 0.0433682234 0)
(147.099839 0.0460445284 0)
(147.087643 0.0483880361 0)
(147.075382 0.0504094879 0)
(147.063083 0.0521261759 0)
(147.050771 0.0535597076 0)
(147.038472 0.0547340121 0)
(147.026209 0.0556736279 0)
(147.014008 0.056402351 0)
(147.001894 0.0569422828 0)
(146.98989 0.0573132242 0)
(146.978021 0.0575323641 0)
(146.966305 0.0576142618 0)
(146.954763 0.0575710876 0)
(146.943412 0.0574129847 0)
(146.932265 0.0571484757 0)
(146.921334 0.056784887 0)
(146.91063 0.056328768 0)
(146.90016 0.0557862589 0)
(146.889929 0.0551633737 0)
(146.879942 0.0544661822 0)
(146.870204 0.0537008862 0)
(146.860717 0.0528738037 0)
(146.851483 0.0519912892 0)
(146.842506 0.0510596133 0)
(146.833786 0.050084808 0)
(146.825328 0.0490725005 0)
(146.817132 0.0480277869 0)
(146.809202 0.0469551857 0)
(146.80154 0.0458586478 0)
(146.794148 0.0447415697 0)
(146.787029 0.0436068629 0)
(146.780183 0.0424567331 0)
(146.773623 0.0412936502 0)
(146.767318 0.0401159724 0)
(146.76139 0.0389361538 0)
(146.755461 0.0376984628 0)
(146.750943 0.0366363234 0)
(146.740454 0.0346429391 0)
(147.125209 0.0427914976 0)
(147.10189 0.118637242 0)
(147.060123 0.176575288 0)
(147.001416 0.210800239 0)
(146.934307 0.218707168 0)
(146.866177 0.202445367 0)
(146.802345 0.165962647 0)
(146.747117 0.112216643 0)
(146.703642 0.0431527517 0)
(146.67681 -0.037700075 0)
(146.670468 -0.119331917 0)
(146.682747 -0.188250577 0)
(146.709923 -0.231163398 0)
(146.746375 -0.238090412 0)
(146.784362 -0.205236016 0)
(146.815542 -0.135972822 0)
(146.831694 -0.0396293241 0)
(146.828774 0.0698572204 0)
(146.80457 0.178982437 0)
(146.758404 0.277896636 0)
(146.692818 0.358498025 0)
(146.612863 0.415086293 0)
(146.524406 0.445150529 0)
(146.433307 0.448890158 0)
(146.345078 0.428594508 0)
(146.264581 0.388312662 0)
(146.195823 0.333738571 0)
(146.141705 0.272253486 0)
(146.103632 0.212900796 0)
(146.08104 0.165903701 0)
(146.071062 0.141457958 0)
(146.068544 0.147875337 0)
(146.066515 0.189516479 0)
(146.057139 0.265238872 0)
(146.03306 0.368102967 0)
(145.98884 0.486641209 0)
(145.922005 0.607415882 0)
(145.833382 0.71814351 0)
(145.726585 0.810412109 0)
(145.606834 0.881139135 0)
(145.479473 0.932364825 0)
(145.348709 0.969586199 0)
(145.216911 0.999369699 0)
(145.084628 1.02717794 0)
(144.951131 1.05612561 0)
(144.81519 1.08688004 0)
(144.675724 1.11841582 0)
(144.532157 1.14906526 0)
(144.384443 1.17735546 0)
(144.232906 1.20238597 0)
(144.078027 1.22378988 0)
(143.920303 1.24148539 0)
(143.760191 1.25542916 0)
(143.598128 1.26548511 0)
(143.434573 1.2714133 0)
(143.270037 1.27292347 0)
(143.105094 1.2697343 0)
(142.940373 1.26160791 0)
(142.776547 1.24835808 0)
(142.614323 1.2298449 0)
(142.45443 1.20596807 0)
(142.297615 1.17666416 0)
(142.144639 1.14190757 0)
(141.996266 1.10171267 0)
(141.853263 1.05613509 0)
(141.716388 1.00527175 0)
(141.586389 0.949259479 0)
(141.464 0.888272861 0)
(141.349939 0.822521276 0)
(141.244903 0.752245435 0)
(141.149572 0.677713405 0)
(141.064603 0.599216486 0)
(140.990621 0.517063716 0)
(140.928227 0.431578646 0)
(140.877979 0.343094144 0)
(140.840309 0.251937349 0)
(140.815559 0.158397634 0)
(140.804454 0.0628638142 0)
(140.808319 -0.03386575 0)
(140.827751 -0.130896825 0)
(140.861718 -0.228111682 0)
(140.910542 -0.32518245 0)
(140.974253 -0.421524758 0)
(141.052765 -0.516569531 0)
(141.145904 -0.609738447 0)
(141.253362 -0.700402048 0)
(141.374709 -0.787905436 0)
(141.509387 -0.871588297 0)
(141.656711 -0.950794264 0)
(141.815873 -1.02488476 0)
(141.985953 -1.09325602 0)
(142.165925 -1.15535515 0)
(142.354674 -1.21069462 0)
(142.551008 -1.25886529 0)
(142.753664 -1.29954744 0)
(142.961338 -1.33251936 0)
(143.172689 -1.35766289 0)
(143.386368 -1.37496586 0)
(143.601039 -1.38452116 0)
(143.815397 -1.38652248 0)
(144.028187 -1.38125733 0)
(144.238225 -1.3690976 0)
(144.444414 -1.35048832 0)
(144.64575 -1.32593516 0)
(144.841338 -1.29599106 0)
(145.030394 -1.26124266 0)
(145.212249 -1.22229692 0)
(145.38635 -1.1797683 0)
(145.552259 -1.13426706 0)
(145.709645 -1.08638871 0)
(145.858282 -1.03670497 0)
(145.998041 -0.985756353 0)
(146.128881 -0.934046217 0)
(146.250836 -0.8820363 0)
(146.364015 -0.830143552 0)
(146.468583 -0.778737808 0)
(146.564756 -0.728139633 0)
(146.652796 -0.678616968 0)
(146.733008 -0.630386007 0)
(146.80573 -0.583623328 0)
(146.871327 -0.538473327 0)
(146.930181 -0.495051598 0)
(146.982678 -0.453446911 0)
(147.029208 -0.41372311 0)
(147.070157 -0.375921314 0)
(147.105903 -0.340062274 0)
(147.136816 -0.306148665 0)
(147.163251 -0.274167065 0)
(147.185552 -0.244089089 0)
(147.204044 -0.215871277 0)
(147.219041 -0.189457006 0)
(147.230834 -0.164779385 0)
(147.239701 -0.141763174 0)
(147.245907 -0.120326083 0)
(147.249705 -0.100379979 0)
(147.251334 -0.0818325931 0)
(147.251028 -0.0645903857 0)
(147.249024 -0.04856373 0)
(147.245565 -0.0336788712 0)
(147.240873 -0.0199016999 0)
(147.234961 -0.00725888552 0)
(147.227846 0.00423906892 0)
(147.219919 0.0142147937 0)
(147.211342 0.0228739253 0)
(147.201965 0.0304475707 0)
(147.191806 0.0371797712 0)
(147.180967 0.0432192323 0)
(147.169562 0.0486354498 0)
(147.157702 0.0534834842 0)
(147.145477 0.0578153654 0)
(147.132968 0.0616745147 0)
(147.12025 0.0650931896 0)
(147.107392 0.068095215 0)
(147.094454 0.0707011739 0)
(147.081481 0.0729313676 0)
(147.068515 0.0748067143 0)
(147.055588 0.0763491548 0)
(147.042728 0.0775816352 0)
(147.02996 0.0785276203 0)
(147.017306 0.0792104198 0)
(147.004787 0.0796526507 0)
(146.992419 0.0798758918 0)
(146.980222 0.0799003648 0)
(146.968211 0.0797446308 0)
(146.956399 0.0794254668 0)
(146.944801 0.0789579255 0)
(146.933427 0.0783554881 0)
(146.922286 0.0776302506 0)
(146.911387 0.0767931275 0)
(146.900737 0.0758540508 0)
(146.89034 0.0748221505 0)
(146.880203 0.0737059074 0)
(146.870328 0.0725132653 0)
(146.860718 0.0712517052 0)
(146.851376 0.0699282826 0)
(146.842304 0.0685496299 0)
(146.833502 0.0671219524 0)
(146.824974 0.0656510139 0)
(146.816719 0.0641420927 0)
(146.808739 0.0625999391 0)
(146.801034 0.0610287553 0)
(146.793607 0.0594321649 0)
(146.786459 0.0578132501 0)
(146.779588 0.0561742048 0)
(146.773006 0.0545174127 0)
(146.766681 0.0528401917 0)
(146.760732 0.0511560779 0)
(146.754763 0.0493976827 0)
(146.750208 0.0478568729 0)
(146.739488 0.0451200342 0)
(147.124887 0.0532274331 0)
(147.100377 0.1473672 0)
(147.058389 0.219187418 0)
(147.000579 0.262691099 0)
(146.934834 0.275300315 0)
(146.868044 0.259551802 0)
(146.805315 0.219958557 0)
(146.750951 0.160055962 0)
(146.709043 0.0829076725 0)
(146.682962 -0.00538588504 0)
(146.675671 -0.0954400881 0)
(146.685686 -0.174115733 0)
(146.710448 -0.226011299 0)
(146.744133 -0.23918238 0)
(146.779046 -0.208613165 0)
(146.807049 -0.137295853 0)
(146.821297 -0.0351335096 0)
(146.818814 0.0847935261 0)
(146.796373 0.207516059 0)
(146.753248 0.319181385 0)
(146.691985 0.409672802 0)
(146.616818 0.472655179 0)
(146.532914 0.505289382 0)
(146.445712 0.507772744 0)
(146.360456 0.482682228 0)
(146.281893 0.434496392 0)
(146.214049 0.369465824 0)
(146.159959 0.295739457 0)
(146.12125 0.223420737 0)
(146.097655 0.164092912 0)
(146.086613 0.129487683 0)
(146.08319 0.129371573 0)
(146.080564 0.169190883 0)
(146.071117 0.248252955 0)
(146.04777 0.359179116 0)
(146.005242 0.48909427 0)
(145.940959 0.622427646 0)
(145.855392 0.744563841 0)
(145.751658 0.845205646 0)
(145.634493 0.920348128 0)
(145.508912 0.972245413 0)
(145.379004 1.00751679 0)
(145.247221 1.03425062 0)
(145.114312 1.05927564 0)
(144.97977 1.08653962 0)
(144.842533 1.11691965 0)
(144.701601 1.14913565 0)
(144.556402 1.18107261 0)
(144.406849 1.21085627 0)
(144.253216 1.23735094 0)
(144.09595 1.26011915 0)
(143.935532 1.2791029 0)
(143.772426 1.29430014 0)
(143.607087 1.30558824 0)
(143.439993 1.31270473 0)
(143.271678 1.31531473 0)
(143.10274 1.31308804 0)
(142.933837 1.30574446 0)
(142.765673 1.29306478 0)
(142.598988 1.27488347 0)
(142.434551 1.25107916 0)
(142.273149 1.22157011 0)
(142.115584 1.18631433 0)
(141.962661 1.1453111 0)
(141.815187 1.09860184 0)
(141.673957 1.04626976 0)
(141.539748 0.988439121 0)
(141.413315 0.925274565 0)
(141.295393 0.856980304 0)
(141.186686 0.783798295 0)
(141.087882 0.706004948 0)
(140.999647 0.623906059 0)
(140.922627 0.537831105 0)
(140.857444 0.448130557 0)
(140.804691 0.355172796 0)
(140.764937 0.259350532 0)
(140.738737 0.16114856 0)
(140.72635 0.061107948 0)
(140.728838 -0.0404434326 0)
(140.747268 -0.143160751 0)
(140.780918 -0.246457041 0)
(140.829899 -0.349820582 0)
(140.894235 -0.452689938 0)
(140.973903 -0.554432968 0)
(141.068763 -0.65438256 0)
(141.178531 -0.751836861 0)
(141.302792 -0.846065592 0)
(141.440996 -0.936323399 0)
(141.592463 -1.02186161 0)
(141.75637 -1.10194266 0)
(141.931767 -1.17585917 0)
(142.117583 -1.24295522 0)
(142.312636 -1.30264768 0)
(142.515648 -1.35444564 0)
(142.725261 -1.39796595 0)
(142.940063 -1.43294397 0)
(143.158606 -1.45923929 0)
(143.379433 -1.47683708 0)
(143.6011 -1.48584569 0)
(143.822204 -1.48649092 0)
(144.0414 -1.47910738 0)
(144.257428 -1.4641272 0)
(144.469123 -1.44206649 0)
(144.67543 -1.41351031 0)
(144.875415 -1.37909644 0)
(145.068273 -1.33949907 0)
(145.253325 -1.29541272 0)
(145.430023 -1.24753712 0)
(145.597944 -1.19656341 0)
(145.756782 -1.14316209 0)
(145.906344 -1.0879727 0)
(146.046542 -1.03159559 0)
(146.177378 -0.974585472 0)
(146.298936 -0.917446788 0)
(146.411371 -0.860630672 0)
(146.514901 -0.804533257 0)
(146.609792 -0.749495104 0)
(146.696357 -0.695801949 0)
(146.774941 -0.64368802 0)
(146.845918 -0.593342205 0)
(146.909683 -0.54491358 0)
(146.966645 -0.498515534 0)
(147.017213 -0.45422916 0)
(147.061798 -0.412106362 0)
(147.100806 -0.372172934 0)
(147.13463 -0.334431599 0)
(147.163656 -0.298865104 0)
(147.188254 -0.265439468 0)
(147.208781 -0.234107371 0)
(147.225575 -0.204811882 0)
(147.238957 -0.177488335 0)
(147.249227 -0.152065157 0)
(147.256666 -0.128464959 0)
(147.261538 -0.106605902 0)
(147.264089 -0.086403626 0)
(147.264553 -0.0677741725 0)
(147.26315 -0.0506385211 0)
(147.260084 -0.034929365 0)
(147.255523 -0.0205983848 0)
(147.249609 -0.00760631879 0)
(147.242688 0.00419711475 0)
(147.235021 0.0149215818 0)
(147.226492 0.0247440288 0)
(147.217147 0.0335504425 0)
(147.206987 0.0413809146 0)
(147.19607 0.0483380315 0)
(147.184508 0.0545235944 0)
(147.172454 0.0600206473 0)
(147.16004 0.0648844204 0)
(147.147368 0.0691559573 0)
(147.134508 0.0728760452 0)
(147.121519 0.0760856679 0)
(147.108446 0.0788233343 0)
(147.095328 0.0811255631 0)
(147.082195 0.0830275845 0)
(147.069076 0.0845628782 0)
(147.056 0.0857626643 0)
(147.042991 0.0866559274 0)
(147.030076 0.0872698699 0)
(147.017278 0.0876300169 0)
(147.004619 0.0877600148 0)
(146.992121 0.0876813942 0)
(146.979803 0.0874135396 0)
(146.967682 0.0869738564 0)
(146.955772 0.0863779538 0)
(146.944087 0.0856397992 0)
(146.932637 0.0847719155 0)
(146.92143 0.0837856148 0)
(146.910476 0.082691232 0)
(146.899778 0.0814983315 0)
(146.889341 0.0802158714 0)
(146.879168 0.0788523199 0)
(146.869262 0.0774157127 0)
(146.859625 0.0759136687 0)
(146.850257 0.0743533758 0)
(146.841162 0.0727415578 0)
(146.832338 0.0710844504 0)
(146.823789 0.0693877788 0)
(146.815514 0.0676567159 0)
(146.807516 0.065895841 0)
(146.799795 0.064109121 0)
(146.792352 0.0622998817 0)
(146.78519 0.0604708471 0)
(146.778304 0.0586238329 0)
(146.771707 0.0567607476 0)
(146.765365 0.0548788349 0)
(146.759396 0.0529909787 0)
(146.753413 0.0510307163 0)
(146.748836 0.0493020307 0)
(146.738223 0.0463001528 0)
(147.125253 0.0678509135 0)
(147.101591 0.18900057 0)
(147.059563 0.282525002 0)
(147.00024 0.34004909 0)
(146.931597 0.357753473 0)
(146.861089 0.338670068 0)
(146.794516 0.288546445 0)
(146.73682 0.211965868 0)
(146.692679 0.112763319 0)
(146.666202 -0.00256010558 0)
(146.661559 -0.121593912 0)
(146.676609 -0.22538725 0)
(146.708538 -0.294650435 0)
(146.750916 -0.314216717 0)
(146.795147 -0.277354845 0)
(146.832068 -0.187506808 0)
(146.853859 -0.0568657498 0)
(146.856729 0.096534829 0)
(146.836581 0.253425564 0)
(146.792464 0.396618459 0)
(146.727653 0.512913638 0)
(146.64722 0.593971905 0)
(146.557139 0.636155265 0)
(146.463682 0.639738243 0)
(146.372934 0.607998488 0)
(146.290408 0.54658087 0)
(146.220715 0.463329171 0)
(146.167217 0.368486882 0)
(146.131582 0.274834138 0)
(146.113312 0.197142681 0)
(146.109422 0.150499453 0)
(146.114482 0.147574698 0)
(146.121122 0.195508337 0)
(146.120949 0.293492747 0)
(146.105915 0.43210875 0)
(146.069866 0.594920525 0)
(146.009739 0.762086417 0)
(145.925972 0.915014387 0)
(145.822031 1.04062595 0)
(145.703219 1.1338454 0)
(145.57516 1.1975475 0)
(145.442447 1.24015755 0)
(145.307845 1.27198445 0)
(145.172217 1.30175752 0)
(145.035011 1.33455548 0)
(144.895034 1.3715461 0)
(144.751134 1.41113076 0)
(144.60261 1.45061998 0)
(144.449293 1.48760772 0)
(144.291415 1.52061807 0)
(144.129407 1.54906708 0)
(143.96375 1.57286469 0)
(143.794915 1.59200377 0)
(143.623368 1.60633163 0)
(143.449608 1.61552057 0)
(143.274194 1.61915028 0)
(143.097763 1.61680443 0)
(142.921015 1.60812863 0)
(142.744706 1.59284501 0)
(142.569632 1.57074357 0)
(142.396619 1.54167059 0)
(142.226513 1.50552353 0)
(142.060173 1.46225197 0)
(141.898462 1.41186049 0)
(141.742242 1.35441021 0)
(141.592366 1.29001751 0)
(141.449674 1.21885021 0)
(141.314992 1.141122 0)
(141.189126 1.05708604 0)
(141.072854 0.967028962 0)
(140.966928 0.871266058 0)
(140.872064 0.770138283 0)
(140.788942 0.664010529 0)
(140.718203 0.553271162 0)
(140.660457 0.438333742 0)
(140.616269 0.319636168 0)
(140.586158 0.197632458 0)
(140.570706 0.072792142 0)
(140.571511 -0.0541831222 0)
(140.589244 -0.18256002 0)
(140.622839 -0.311742976 0)
(140.672557 -0.4410672 0)
(140.738545 -0.569775333 0)
(140.820835 -0.697056914 0)
(140.919339 -0.822057288 0)
(141.033824 -0.943873031 0)
(141.163911 -1.06156298 0)
(141.309058 -1.17416916 0)
(141.468561 -1.28073769 0)
(141.641549 -1.38034022 0)
(141.826994 -1.47209718 0)
(142.023716 -1.55520093 0)
(142.230407 -1.62893751 0)
(142.445641 -1.69270666 0)
(142.667898 -1.7460395 0)
(142.895597 -1.78861263 0)
(143.127112 -1.8202576 0)
(143.360811 -1.84096511 0)
(143.595081 -1.85088354 0)
(143.828356 -1.85031221 0)
(144.059148 -1.83968977 0)
(144.286065 -1.81957893 0)
(144.507835 -1.79064811 0)
(144.72332 -1.75365126 0)
(144.931523 -1.70940661 0)
(145.131598 -1.65877537 0)
(145.32285 -1.60264104 0)
(145.504733 -1.54189018 0)
(145.676844 -1.47739504 0)
(145.838915 -1.40999844 0)
(145.990803 -1.34050118 0)
(146.132477 -1.26965201 0)
(146.264009 -1.19814008 0)
(146.385554 -1.12658973 0)
(146.497346 -1.05555745 0)
(146.599679 -0.985530653 0)
(146.692898 -0.916928119 0)
(146.777387 -0.850102008 0)
(146.853563 -0.785341547 0)
(146.921864 -0.722878146 0)
(146.982744 -0.662891119 0)
(147.036661 -0.605513161 0)
(147.084075 -0.550835535 0)
(147.125438 -0.498913045 0)
(147.161195 -0.449768891 0)
(147.191773 -0.403399239 0)
(147.217583 -0.359777282 0)
(147.239017 -0.318856665 0)
(147.256443 -0.2805743 0)
(147.270208 -0.244852813 0)
(147.28064 -0.211602736 0)
(147.288046 -0.18072484 0)
(147.292716 -0.152112761 0)
(147.294922 -0.12565549 0)
(147.294917 -0.101239314 0)
(147.292937 -0.0787489335 0)
(147.289196 -0.0580676017 0)
(147.283894 -0.039077022 0)
(147.277243 -0.0216661453 0)
(147.269606 -0.00579801968 0)
(147.261249 0.00856373051 0)
(147.251964 0.0215035423 0)
(147.241821 0.0331303292 0)
(147.230944 0.0435051964 0)
(147.219433 0.0527310246 0)
(147.207375 0.0609296664 0)
(147.194849 0.068220251 0)
(147.181916 0.0746989725 0)
(147.168637 0.080439463 0)
(147.155086 0.0855009413 0)
(147.141345 0.0899315796 0)
(147.127486 0.0937711388 0)
(147.113574 0.0970549674 0)
(147.099663 0.0998174498 0)
(147.085797 0.102093293 0)
(147.072012 0.103917459 0)
(147.058336 0.105325121 0)
(147.044792 0.106351368 0)
(147.031401 0.10703021 0)
(147.01818 0.107393815 0)
(147.005146 0.107472097 0)
(146.992311 0.107292441 0)
(146.979689 0.106879708 0)
(146.967291 0.106256466 0)
(146.955127 0.105443202 0)
(146.943206 0.104458475 0)
(146.931537 0.103319068 0)
(146.920127 0.102040154 0)
(146.908981 0.10063546 0)
(146.898106 0.0991174183 0)
(146.887504 0.0974973236 0)
(146.877181 0.0957854761 0)
(146.867139 0.0939913132 0)
(146.857378 0.0921235172 0)
(146.847902 0.0901901018 0)
(146.838711 0.0881984679 0)
(146.829804 0.0861554145 0)
(146.821183 0.0840671254 0)
(146.812846 0.0819391598 0)
(146.804795 0.0797764565 0)
(146.797027 0.0775833389 0)
(146.789544 0.0753634841 0)
(146.782345 0.0731199761 0)
(146.775427 0.070854965 0)
(146.7688 0.0685709005 0)
(146.762429 0.0662651089 0)
(146.756432 0.0639536852 0)
(146.750401 0.0615608448 0)
(146.745796 0.0594491425 0)
(146.734937 0.0558343302 0)
(147.125359 0.0816873676 0)
(147.101728 0.227798388 0)
(147.059599 0.341138868 0)
(147.000161 0.412226921 0)
(146.931425 0.436732491 0)
(146.860754 0.418051848 0)
(146.793851 0.362645972 0)
(146.735632 0.275721477 0)
(146.69064 0.161702847 0)
(146.662537 0.0282598423 0)
(146.657307 -0.110121282 0)
(146.673308 -0.232817076 0)
(146.705958 -0.317302737 0)
(146.74892 -0.34547642 0)
(146.793797 -0.30898081 0)
(146.831583 -0.211245088 0)
(146.85413 -0.0660430498 0)
(146.858037 0.106192481 0)
(146.840235 0.283377045 0)
(146.799333 0.445688213 0)
(146.737826 0.577781306 0)
(146.66032 0.669832856 0)
(146.572647 0.717443244 0)
(146.481055 0.720737735 0)
(146.391641 0.683262583 0)
(146.30997 0.611213657 0)
(146.240775 0.513273669 0)
(146.187619 0.400930476 0)
(146.152457 0.28873036 0)
(146.135114 0.193719903 0)
(146.13286 0.133547082 0)
(146.140289 0.123285109 0)
(146.1498 0.171767195 0)
(146.152771 0.278670577 0)
(146.14107 0.433544909 0)
(146.108471 0.617492699 0)
(146.051725 0.807306692 0)
(145.971003 0.980954163 0)
(145.869524 1.12271794 0)
(145.752441 1.22631015 0)
(145.625353 1.29496699 0)
(145.492921 1.33868358 0)
(145.358025 1.36984701 0)
(145.221626 1.3990401 0)
(145.083228 1.43248228 0)
(144.94164 1.47165556 0)
(144.795685 1.51465557 0)
(144.644622 1.55821821 0)
(144.48825 1.59940323 0)
(144.326782 1.63640023 0)
(144.160647 1.66849553 0)
(143.990333 1.6955907 0)
(143.816323 1.71769755 0)
(143.639105 1.73465321 0)
(143.459206 1.74607957 0)
(143.277221 1.75148197 0)
(143.093829 1.75036764 0)
(142.909782 1.74231752 0)
(142.725894 1.72700497 0)
(142.543024 1.70418546 0)
(142.362066 1.67368202 0)
(142.183941 1.63537788 0)
(142.009583 1.58921596 0)
(141.839933 1.5352002 0)
(141.675927 1.47339515 0)
(141.518484 1.40392302 0)
(141.368497 1.32695933 0)
(141.226823 1.24272863 0)
(141.094282 1.15150046 0)
(140.971657 1.05358517 0)
(140.859702 0.949329302 0)
(140.759143 0.839110699 0)
(140.670684 0.72333402 0)
(140.595006 0.602428976 0)
(140.532761 0.476850365 0)
(140.484568 0.347082812 0)
(140.451012 0.213659705 0)
(140.432616 0.077163545 0)
(140.4311 -0.0618724798 0)
(140.447324 -0.20284113 0)
(140.48021 -0.345048243 0)
(140.53008 -0.487743036 0)
(140.597134 -0.6300943 0)
(140.681462 -0.771190342 0)
(140.783023 -0.91005033 0)
(140.901624 -1.04563239 0)
(141.036912 -1.17684581 0)
(141.188356 -1.30256913 0)
(141.355245 -1.42167207 0)
(141.536679 -1.53304165 0)
(141.731571 -1.63561245 0)
(141.938657 -1.7283988 0)
(142.156508 -1.81052634 0)
(142.383552 -1.88126021 0)
(142.618101 -1.94002857 0)
(142.858386 -1.98643985 0)
(143.102586 -2.02029336 0)
(143.348872 -2.04158312 0)
(143.595441 -2.05049508 0)
(143.84055 -2.04739796 0)
(144.082547 -2.03282843 0)
(144.319903 -2.00747156 0)
(144.551233 -1.97213747 0)
(144.775309 -1.92773571 0)
(144.991075 -1.87524834 0)
(145.197651 -1.81570338 0)
(145.394332 -1.75014912 0)
(145.580588 -1.67963071 0)
(145.756048 -1.6051693 0)
(145.920495 -1.52774421 0)
(146.07385 -1.44827851 0)
(146.216156 -1.36762786 0)
(146.347564 -1.28657251 0)
(146.468316 -1.2058122 0)
(146.57873 -1.12596383 0)
(146.679187 -1.04756131 0)
(146.770113 -0.971057402 0)
(146.851971 -0.896827367 0)
(146.925252 -0.825173945 0)
(146.990457 -0.756333427 0)
(147.048099 -0.690482298 0)
(147.098687 -0.627743826 0)
(147.142723 -0.568194328 0)
(147.180697 -0.511868945 0)
(147.213081 -0.458766983 0)
(147.24033 -0.408856846 0)
(147.262876 -0.36208081 0)
(147.281133 -0.318359894 0)
(147.295493 -0.277598735 0)
(147.306323 -0.239690047 0)
(147.313971 -0.204518229 0)
(147.318754 -0.171961911 0)
(147.320968 -0.141895782 0)
(147.320885 -0.114192273 0)
(147.318757 -0.0887235593 0)
(147.314819 -0.065364269 0)
(147.309295 -0.0439952299 0)
(147.302381 -0.0245041911 0)
(147.294148 -0.00676705403 0)
(147.284814 0.00943893817 0)
(147.274696 0.0240347646 0)
(147.263878 0.037135081 0)
(147.252377 0.0488505458 0)
(147.240249 0.0592872028 0)
(147.227568 0.0685420891 0)
(147.214407 0.0767076592 0)
(147.200851 0.0838700039 0)
(147.186998 0.0901122977 0)
(147.172939 0.0955192321 0)
(147.158745 0.100173138 0)
(147.144464 0.104148794 0)
(147.130139 0.107512202 0)
(147.115812 0.110320603 0)
(147.101518 0.112622657 0)
(147.08729 0.114460088 0)
(147.073157 0.115870051 0)
(147.059148 0.116886794 0)
(147.045286 0.117542545 0)
(147.031595 0.117867582 0)
(147.018093 0.117890295 0)
(147.004797 0.117637334 0)
(146.991722 0.117133741 0)
(146.978882 0.116402935 0)
(146.966288 0.11546657 0)
(146.953952 0.114344478 0)
(146.941881 0.113054726 0)
(146.930082 0.111613751 0)
(146.91856 0.110036518 0)
(146.90732 0.108336692 0)
(146.896365 0.106526794 0)
(146.885695 0.104618341 0)
(146.875313 0.102621955 0)
(146.865219 0.100547436 0)
(146.855412 0.0984037985 0)
(146.845894 0.0961992998 0)
(146.836664 0.0939414474 0)
(146.827721 0.0916370124 0)
(146.819067 0.0892920588 0)
(146.810699 0.0869119751 0)
(146.802619 0.0845014916 0)
(146.794825 0.0820646908 0)
(146.787317 0.0796049948 0)
(146.780095 0.0771252486 0)
(146.773155 0.0746274299 0)
(146.766507 0.0721138413 0)
(146.760115 0.0695820839 0)
(146.754096 0.0670478139 0)
(146.748058 0.0644366164 0)
(146.743434 0.0621193509 0)
(146.732747 0.0582212534 0)
(147.125477 0.0956224595 0)
(147.101835 0.267326674 0)
(147.059202 0.40123172 0)
(146.998605 0.485957545 0)
(146.928152 0.516067456 0)
(146.855524 0.495238912 0)
(146.786795 0.430861791 0)
(146.727188 0.328982239 0)
(146.681732 0.194876007 0)
(146.65505 0.0376920802 0)
(146.651922 -0.125512722 0)
(146.670335 -0.270914961 0)
(146.706647 -0.371969347 0)
(146.754091 -0.407264175 0)
(146.80362 -0.366737135 0)
(146.845671 -0.254096955 0)
(146.871902 -0.0852226076 0)
(146.87876 0.116480643 0)
(146.862852 0.324988508 0)
(146.822437 0.516414107 0)
(146.760356 0.672354824 0)
(146.681523 0.781131045 0)
(146.592087 0.837487768 0)
(146.498677 0.841480479 0)
(146.407806 0.797186774 0)
(146.325427 0.711813701 0)
(146.256566 0.595510119 0)
(146.204939 0.461740419 0)
(146.172484 0.327586535 0)
(146.158866 0.213098918 0)
(146.161129 0.139062292 0)
(146.173718 0.12327309 0)
(146.188973 0.176249083 0)
(146.198053 0.297808048 0)
(146.192344 0.47591909 0)
(146.165095 0.688611443 0)
(146.112693 0.908761672 0)
(146.035143 1.11049982 0)
(145.935661 1.27525407 0)
(145.819514 1.39545279 0)
(145.69248 1.47470517 0)
(145.559419 1.52461998 0)
(145.423383 1.55971307 0)
(145.285444 1.59247386 0)
(145.145155 1.63032123 0)
(145.00131 1.67511389 0)
(144.852672 1.72469801 0)
(144.698429 1.77527234 0)
(144.53831 1.82337356 0)
(144.372479 1.86684292 0)
(144.201334 1.90480688 0)
(144.025351 1.93712259 0)
(143.84502 1.96378654 0)
(143.660843 1.9845961 0)
(143.473374 1.99909735 0)
(143.283248 2.00669827 0)
(143.091193 2.00680731 0)
(142.898023 1.99891857 0)
(142.70462 1.98263476 0)
(142.51192 1.95765573 0)
(142.320894 1.92376174 0)
(142.132541 1.88080532 0)
(141.947868 1.82871154 0)
(141.767882 1.76748087 0)
(141.593582 1.69718988 0)
(141.425948 1.61798802 0)
(141.265938 1.53009105 0)
(141.114487 1.4337723 0)
(140.972498 1.329353 0)
(140.84084 1.21719292 0)
(140.72034 1.09768226 0)
(140.611781 0.971235783 0)
(140.515902 0.838289647 0)
(140.433404 0.699301054 0)
(140.364962 0.554751205 0)
(140.311233 0.4051506 0)
(140.272855 0.251043529 0)
(140.25043 0.0930104196 0)
(140.245913 -0.0682803714 0)
(140.260305 -0.232077113 0)
(140.29228 -0.397555745 0)
(140.342237 -0.563832223 0)
(140.410503 -0.729930573 0)
(140.497282 -0.894773012 0)
(140.602638 -1.05718848 0)
(140.726464 -1.215922 0)
(140.868466 -1.36965054 0)
(141.028135 -1.51700842 0)
(141.204742 -1.6566186 0)
(141.397329 -1.78712698 0)
(141.604709 -1.90723914 0)
(141.825478 -2.01575784 0)
(142.058035 -2.11161984 0)
(142.300604 -2.19393013 0)
(142.55127 -2.26199176 0)
(142.808021 -2.3153291 0)
(143.068787 -2.35370279 0)
(143.331485 -2.37711562 0)
(143.594067 -2.38580903 0)
(143.854565 -2.38025083 0)
(144.111123 -2.36111537 0)
(144.362037 -2.32925762 0)
(144.605777 -2.28568264 0)
(144.841009 -2.23151248 0)
(145.066604 -2.16795196 0)
(145.281642 -2.09625507 0)
(145.485413 -2.01769313 0)
(145.677406 -1.93352604 0)
(145.857298 -1.84497709 0)
(146.024937 -1.753212 0)
(146.180327 -1.65932211 0)
(146.323606 -1.56431204 0)
(146.455028 -1.46909124 0)
(146.574941 -1.37446913 0)
(146.683771 -1.28115354 0)
(146.782005 -1.18975185 0)
(146.870171 -1.10077427 0)
(146.94883 -1.01463894 0)
(147.01856 -0.931678433 0)
(147.079945 -0.852147086 0)
(147.133571 -0.776228948 0)
(147.180013 -0.704045806 0)