/*--------------------------------*- C++ -*----------------------------------*\
| =========                 |                                                 |
| \\      /  F ield         | OpenFOAM: The Open Source CFD Toolbox           |
|  \\    /   O peration     | Version:  v2012                                 |
|   \\  /    A nd           | Website:  www.openfoam.com                      |
|    \\/     M anipulation  |                                                 |
\*---------------------------------------------------------------------------*/
FoamFile
{
    version     2.0;
    format      ascii;
    class       volVectorField;
    location    "2.24";
    object      HbyA;
}
// * * * * * * * * * * * * * * * * * * * * * * * * * * * * * * * * * * * * * //

dimensions      [0 1 -1 0 0 0 0];


internalField   nonuniform List<vector> 
28416
(
(0.0999976486 1.36317711e-05 0)
(0.0999812956 3.83002281e-05 0)
(0.0999519853 5.74827189e-05 0)
(0.0999137097 6.83789384e-05 0)
(0.099871655 6.95364493e-05 0)
(0.0998299694 6.16053959e-05 0)
(0.0997917651 4.60850967e-05 0)
(0.0997600212 2.40807187e-05 0)
(0.0997376891 -3.91941422e-06 0)
(0.0997237877 -3.74375889e-05 0)
(0.0997168579 -7.08670706e-05 0)
(0.0997182352 -9.78446375e-05 0)
(0.099727161 -0.000113139896 0)
(0.0997405368 -0.000112882921 0)
(0.0997543478 -9.57083598e-05 0)
(0.0997643881 -6.32156901e-05 0)
(0.0997679825 -1.93418592e-05 0)
(0.0997626208 2.92658651e-05 0)
(0.0997444882 7.70426335e-05 0)
(0.0997131526 0.00012063338 0)
(0.0996718819 0.000156618636 0)
(0.0996238224 0.000182239062 0)
(0.0995716991 0.000196148779 0)
(0.0995183237 0.000198285292 0)
(0.0994663829 0.000189675835 0)
(0.0994182513 0.000172307946 0)
(0.0993759362 0.000148987353 0)
(0.0993409095 0.000123219808 0)
(0.0993138247 9.9081374e-05 0)
(0.0992942254 8.09465446e-05 0)
(0.0992803472 7.29865455e-05 0)
(0.099269169 7.84820726e-05 0)
(0.0992568327 9.90890346e-05 0)
(0.0992393151 0.00013425481 0)
(0.0992131202 0.000181072939 0)
(0.0991758673 0.000234770383 0)
(0.099126674 0.000289739111 0)
(0.0990662106 0.000340809825 0)
(0.0989963814 0.000384368319 0)
(0.0989197196 0.000418969263 0)
(0.0988387042 0.000445277698 0)
(0.0987552219 0.000465412931 0)
(0.0986703116 0.000481989465 0)
(0.0985842168 0.00049723307 0)
(0.0984966552 0.000512462473 0)
(0.0984071594 0.000528026863 0)
(0.0983153501 0.000543587544 0)
(0.0982210711 0.000558524819 0)
(0.0981243919 0.000572268854 0)
(0.0980255337 0.00058445513 0)
(0.0979247826 0.000594917649 0)
(0.0978224332 0.000603598474 0)
(0.0977187713 0.000610455175 0)
(0.0976140827 0.000615411004 0)
(0.0975086709 0.000618350672 0)
(0.0974028684 0.000619140991 0)
(0.0972970408 0.000617653947 0)
(0.097191583 0.000613780387 0)
(0.0970869144 0.00060743358 0)
(0.0969834731 0.000598547388 0)
(0.0968817127 0.000587073646 0)
(0.0967820981 0.000572980803 0)
(0.0966851024 0.000556253846 0)
(0.0965912018 0.000536894815 0)
(0.0965008711 0.000514923585 0)
(0.0964145793 0.000490379019 0)
(0.0963327853 0.000463320687 0)
(0.0962559358 0.000433831029 0)
(0.0961844656 0.000402017225 0)
(0.0961187985 0.000368011814 0)
(0.0960593509 0.000331970979 0)
(0.0960065343 0.000294070633 0)
(0.0959607554 0.000254499861 0)
(0.0959224127 0.000213452298 0)
(0.0958918996 0.000171119192 0)
(0.0958696287 0.000127675942 0)
(0.095855929 8.32029634e-05 0)
(0.0958506199 3.77794883e-05 0)
(0.0958535153 -7.97397615e-06 0)
(0.0958656042 -5.34869372e-05 0)
(0.0958876433 -9.90145912e-05 0)
(0.0959192996 -0.000144516514 0)
(0.0959603735 -0.00018970893 0)
(0.0960108509 -0.000234329162 0)
(0.0960705988 -0.00027812219 0)
(0.096139377 -0.000320811793 0)
(0.0962168889 -0.000362111423 0)
(0.0963027666 -0.000401728293 0)
(0.0963965619 -0.000439361984 0)
(0.0964977559 -0.000474708371 0)
(0.0966057686 -0.000507468936 0)
(0.096719967 -0.000537362789 0)
(0.0968396709 -0.000564139203 0)
(0.0969641602 -0.000587588385 0)
(0.0970926813 -0.00060754875 0)
(0.0972244536 -0.000623910316 0)
(0.0973586785 -0.00063661507 0)
(0.0974945496 -0.000645655513 0)
(0.0976312641 -0.000651072343 0)
(0.0977680349 -0.000652951672 0)
(0.0979041016 -0.000651421806 0)
(0.0980387407 -0.0006466494 0)
(0.0981712749 -0.000638834868 0)
(0.0983010799 -0.000628207102 0)
(0.0984275902 -0.00061501764 0)
(0.0985503031 -0.000599534546 0)
(0.0986687813 -0.000582036246 0)
(0.0987826537 -0.000562805572 0)
(0.0988916151 -0.000542124251 0)
(0.0989954251 -0.000520267975 0)
(0.0990939047 -0.000497502174 0)
(0.0991869338 -0.000474078523 0)
(0.0992744461 -0.000450232153 0)
(0.0993564247 -0.000426179475 0)
(0.0994328965 -0.00040211659 0)
(0.0995039264 -0.000378218123 0)
(0.0995696099 -0.000354636128 0)
(0.0996300701 -0.000331498073 0)
(0.0996854649 -0.000308906752 0)
(0.0997359876 -0.000286946585 0)
(0.0997818538 -0.000265687318 0)
(0.0998232919 -0.000245185647 0)
(0.0998605369 -0.000225486092 0)
(0.0998938265 -0.000206621783 0)
(0.0999233981 -0.000188615374 0)
(0.0999494871 -0.000171480118 0)
(0.0999723247 -0.000155221093 0)
(0.099992136 -0.000139836509 0)
(0.100009137 -0.000125318572 0)
(0.100023534 -0.000111652945 0)
(0.100035524 -9.88198068e-05 0)
(0.100045295 -8.67951852e-05 0)
(0.100053024 -7.55508375e-05 0)
(0.100058878 -6.50535298e-05 0)
(0.100063015 -5.52645497e-05 0)
(0.100065591 -4.61400447e-05 0)
(0.100066756 -3.76323854e-05 0)
(0.100066663 -2.9691991e-05 0)
(0.100065471 -2.22668873e-05 0)
(0.100063356 -1.53018822e-05 0)
(0.100060539 -8.7694425e-06 0)
(0.100057414 -2.79929194e-06 0)
(0.10005384 2.24351103e-06 0)
(0.100049382 6.58314281e-06 0)
(0.100044013 1.03952425e-05 0)
(0.100037832 1.38401722e-05 0)
(0.100031052 1.70151252e-05 0)
(0.100023848 1.99529669e-05 0)
(0.100016323 2.26658104e-05 0)
(0.100008553 2.51586126e-05 0)
(0.100000601 2.7430527e-05 0)
(0.0999925223 2.94775398e-05 0)
(0.0999843561 3.12966523e-05 0)
(0.09997613 3.28895649e-05 0)
(0.0999678646 3.42635782e-05 0)
(0.0999595778 3.54304455e-05 0)
(0.0999512866 3.64048528e-05 0)
(0.0999430071 3.72030646e-05 0)
(0.0999347557 3.78417592e-05 0)
(0.0999265487 3.83371105e-05 0)
(0.0999184025 3.87041402e-05 0)
(0.0999103331 3.89563071e-05 0)
(0.0999023555 3.91052938e-05 0)
(0.0998944837 3.91609963e-05 0)
(0.0998867303 3.91316863e-05 0)
(0.0998791063 3.90242579e-05 0)
(0.0998716212 3.88445037e-05 0)
(0.099864283 3.85974034e-05 0)
(0.0998570979 3.82874085e-05 0)
(0.0998500711 3.7918692e-05 0)
(0.0998432065 3.7495342e-05 0)
(0.0998365071 3.70214837e-05 0)
(0.0998299753 3.65013324e-05 0)
(0.0998236131 3.59391827e-05 0)
(0.099817422 3.53393534e-05 0)
(0.0998114035 3.47061067e-05 0)
(0.0998055593 3.40435427e-05 0)
(0.0997998906 3.33554861e-05 0)
(0.0997943992 3.26454009e-05 0)
(0.0997890865 3.19163582e-05 0)
(0.0997839542 3.11710437e-05 0)
(0.0997790035 3.04117657e-05 0)
(0.0997742367 2.96405035e-05 0)
(0.0997696533 2.88587564e-05 0)
(0.099765262 2.8068203e-05 0)
(0.0997610426 2.72677274e-05 0)
(0.0997570768 2.64657952e-05 0)
(0.0997531089 2.56245242e-05 0)
(0.0997500946 2.49025775e-05 0)
(0.0997450553 2.35481204e-05 0)
(0.0999982767 2.90845876e-05 0)
(0.0999841446 8.06369187e-05 0)
(0.0999557205 0.000120016968 0)
(0.0999160477 0.000143279754 0)
(0.0998708959 0.000148654737 0)
(0.0998252181 0.000137602498 0)
(0.099782559 0.000112805947 0)
(0.0997457903 7.62750096e-05 0)
(0.0997170162 2.93316757e-05 0)
(0.0996990229 -2.56254595e-05 0)
(0.0996942487 -8.11118009e-05 0)
(0.0997020719 -0.000127956239 0)
(0.0997200708 -0.000157123867 0)
(0.0997445323 -0.00016183171 0)
(0.0997702771 -0.000139500244 0)
(0.0997916795 -9.24217968e-05 0)
(0.0998031557 -2.69364979e-05 0)
(0.0998009629 4.74826402e-05 0)
(0.099783996 0.000121655496 0)
(0.0997523381 0.000188887576 0)
(0.0997077473 0.00024367267 0)
(0.0996536577 0.000282136686 0)
(0.0995940271 0.000302573032 0)
(0.0995327916 0.000305116994 0)
(0.09947364 0.000291324153 0)
(0.0994198131 0.000263946145 0)
(0.0993739654 0.000226852756 0)
(0.0993380007 0.00018506091 0)
(0.0993128052 0.000144717656 0)
(0.0992979352 0.0001127723 0)
(0.0992914006 9.6155656e-05 0)
(0.0992896849 0.000100517847 0)
(0.0992880745 0.000128822997 0)
(0.099281308 0.000180294249 0)
(0.0992644852 0.000250214242 0)
(0.0992340216 0.000330788054 0)
(0.0991883415 0.000412882031 0)
(0.0991280795 0.000488147406 0)
(0.0990557218 0.000550866929 0)
(0.0989747969 0.000598945562 0)
(0.0988888859 0.000633769952 0)
(0.0988007799 0.000659076187 0)
(0.0987120299 0.000679327296 0)
(0.0986229665 0.000698236173 0)
(0.0985330796 0.000717919954 0)
(0.098441536 0.00073883231 0)
(0.0983476161 0.000760276335 0)
(0.0982509418 0.000781118518 0)
(0.0981514928 0.000800357665 0)
(0.0980494923 0.000817381674 0)
(0.0979452668 0.000831941059 0)
(0.0978391495 0.000843980118 0)
(0.097731448 0.000853469301 0)
(0.0976224571 0.00086031599 0)
(0.0975124863 0.000864356965 0)
(0.0974018808 0.000865394766 0)
(0.0972910279 0.000863238 0)
(0.097180352 0.000857724785 0)
(0.097070307 0.000848728339 0)
(0.0969613681 0.000836153353 0)
(0.0968540265 0.000819931425 0)
(0.0967487854 0.000800019227 0)
(0.0966461557 0.000776399152 0)
(0.0965466522 0.000749080749 0)
(0.0964507892 0.000718101652 0)
(0.0963590765 0.00068352756 0)
(0.0962720166 0.000645451339 0)
(0.0961901021 0.000603991527 0)
(0.0961138146 0.000559290355 0)
(0.0960436224 0.000511511388 0)
(0.0959799804 0.000460836815 0)
(0.0959233283 0.000407464655 0)
(0.0958740868 0.00035160503 0)
(0.0958326559 0.000293477956 0)
(0.0957994111 0.000233309827 0)
(0.0957746407 0.000171323176 0)
(0.0957585708 0.00010771488 0)
(0.0957516858 4.2749473e-05 0)
(0.0957544697 -2.30298675e-05 0)
(0.0957669388 -8.90136223e-05 0)
(0.0957891791 -0.000155121144 0)
(0.0958214117 -0.000221129242 0)
(0.0958636579 -0.000286640322 0)
(0.0959158634 -0.00035126722 0)
(0.0959779146 -0.000414616527 0)
(0.0960496078 -0.000476260111 0)
(0.0961306562 -0.000535752591 0)
(0.0962206894 -0.000592644974 0)
(0.0963192503 -0.000646491013 0)
(0.0964257986 -0.000696856627 0)
(0.0965397183 -0.000743331478 0)
(0.0966603241 -0.000785539879 0)
(0.0967868691 -0.000823150645 0)
(0.0969185526 -0.00085588593 0)
(0.0970545298 -0.000883528745 0)
(0.0971939227 -0.000905928733 0)
(0.0973358322 -0.000923005973 0)
(0.0974793518 -0.000934752604 0)
(0.0976235819 -0.000941232149 0)
(0.0977676441 -0.000942576663 0)
(0.0979106944 -0.000938981929 0)
(0.0980519349 -0.000930701055 0)
(0.0981906245 -0.00091803683 0)
(0.0983260871 -0.000901333195 0)
(0.0984577173 -0.000880966185 0)
(0.098584985 -0.000857334696 0)
(0.0987074376 -0.000830851373 0)
(0.0988247 -0.000801933938 0)
(0.0989364735 -0.000770997193 0)
(0.0990425333 -0.000738445898 0)
(0.0991427241 -0.000704668622 0)
(0.0992369558 -0.000670032685 0)
(0.0993251973 -0.000634880145 0)
(0.099407471 -0.000599524764 0)
(0.0994838457 -0.000564249847 0)
(0.0995544308 -0.000529306679 0)
(0.0996193699 -0.000494913058 0)
(0.0996788375 -0.00046125101 0)
(0.0997330363 -0.0004284674 0)
(0.0997821934 -0.000396682173 0)
(0.0998265535 -0.0003659934 0)
(0.0998663712 -0.000336479588 0)
(0.0999019068 -0.000308201018 0)
(0.0999334211 -0.000281201038 0)
(0.0999611735 -0.000255507552 0)
(0.0999854183 -0.000231134631 0)
(0.100006403 -0.000208084065 0)
(0.100024368 -0.000186346707 0)
(0.100039542 -0.000165903245 0)
(0.100052147 -0.000146724125 0)
(0.10006239 -0.000128770849 0)
(0.100070471 -0.000111997944 0)
(0.100076575 -9.63542636e-05 0)
(0.100080882 -8.17838721e-05 0)
(0.10008356 -6.82268645e-05 0)
(0.100084772 -5.56205246e-05 0)
(0.100084676 -4.39012745e-05 0)
(0.10008343 -3.30081962e-05 0)
(0.100081199 -2.28911602e-05 0)
(0.100078132 -1.35269842e-05 0)
(0.10007424 -4.93379733e-06 0)
(0.100069465 2.88125766e-06 0)
(0.100064074 9.66166928e-06 0)
(0.100058255 1.5547206e-05 0)
(0.100051907 2.06949514e-05 0)
(0.100045039 2.52707793e-05 0)
(0.100037717 2.9375764e-05 0)
(0.10003002 3.30571412e-05 0)
(0.10002202 3.63523354e-05 0)
(0.100013779 3.92967102e-05 0)
(0.100005349 4.19197782e-05 0)
(0.0999967827 4.42434644e-05 0)
(0.0999881253 4.62839615e-05 0)
(0.0999794159 4.80552589e-05 0)
(0.0999706865 4.95711549e-05 0)
(0.0999619636 5.08458663e-05 0)
(0.0999532693 5.18943056e-05 0)
(0.0999446222 5.27320685e-05 0)
(0.0999360386 5.33751032e-05 0)
(0.0999275332 5.38392525e-05 0)
(0.0999191195 5.41398883e-05 0)
(0.0999108099 5.42916776e-05 0)
(0.0999026157 5.43083641e-05 0)
(0.0998945473 5.42025636e-05 0)
(0.0998866144 5.39856788e-05 0)
(0.0998788254 5.36679406e-05 0)
(0.0998711877 5.3258512e-05 0)
(0.0998637079 5.27656144e-05 0)
(0.0998563912 5.2196666e-05 0)
(0.0998492423 5.15584174e-05 0)
(0.0998422647 5.08570743e-05 0)
(0.0998354615 5.00984008e-05 0)
(0.0998288351 4.92877961e-05 0)
(0.0998223873 4.84303454e-05 0)
(0.0998161198 4.75308439e-05 0)
(0.0998100336 4.65937995e-05 0)
(0.09980413 4.56234303e-05 0)
(0.0997984098 4.46236538e-05 0)
(0.0997928736 4.35980576e-05 0)
(0.0997875224 4.25498705e-05 0)
(0.0997823567 4.14819491e-05 0)
(0.0997773773 4.03967561e-05 0)
(0.0997725854 3.92963865e-05 0)
(0.09976798 3.81823319e-05 0)
(0.0997635688 3.70562123e-05 0)
(0.0997593299 3.59162045e-05 0)
(0.0997553452 3.47715096e-05 0)
(0.0997513443 3.35763226e-05 0)
(0.0997483016 3.25290291e-05 0)
(0.0997430965 3.06693991e-05 0)
(0.0999979691 3.61776672e-05 0)
(0.0999828616 0.000100164218 0)
(0.0999541524 0.00014897955 0)
(0.0999149988 0.000178548826 0)
(0.0998707303 0.000187119982 0)
(0.0998259653 0.000176416928 0)
(0.0997840986 0.00014950662 0)
(0.0997479946 0.000108791535 0)
(0.0997203808 5.63536133e-05 0)
(0.0997032876 -3.66089174e-06 0)
(0.0996977353 -6.48721125e-05 0)
(0.0997039068 -0.000118348418 0)
(0.0997201886 -0.00015362157 0)
(0.0997427472 -0.000162573502 0)
(0.0997664454 -0.000141795403 0)
(0.0997857934 -9.33209656e-05 0)
(0.0997961199 -2.38806495e-05 0)
(0.0997941593 5.76349748e-05 0)
(0.0997782107 0.000141049678 0)
(0.0997484409 0.000216948149 0)
(0.0997066316 0.000278454852 0)
(0.0996556745 0.000321264444 0)
(0.0995990614 0.000343447399 0)
(0.0995404457 0.000345137625 0)
(0.0994833325 0.000328086136 0)
(0.0994308783 0.000295336333 0)
(0.0993857452 0.00025113617 0)
(0.0993499147 0.000201024207 0)
(0.0993244107 0.000151867939 0)
(0.0993089734 0.000111541138 0)
(0.0993017993 8.80187418e-05 0)
(0.0992995029 8.79398438e-05 0)
(0.0992974627 0.000115006575 0)
(0.0992905619 0.000168747771 0)
(0.0992740965 0.000244147392 0)
(0.0992446073 0.000332453603 0)
(0.099200474 0.000423082853 0)
(0.0991421148 0.000506101508 0)
(0.0990716975 0.000574511187 0)
(0.0989924325 0.000625590119 0)
(0.0989076746 0.0006608704 0)
(0.0988201258 0.000684850861 0)
(0.0987313787 0.000703028864 0)
(0.0986418869 0.000720045777 0)
(0.0985512831 0.000738584931 0)
(0.0984588457 0.000759242591 0)
(0.0983639121 0.000781148768 0)
(0.0982661104 0.000802865939 0)
(0.0981653959 0.000823120136 0)
(0.0980619603 0.000841139368 0)
(0.0979561069 0.000856626202 0)
(0.0978481602 0.000869541129 0)
(0.0977384312 0.000879882662 0)
(0.0976272256 0.000887567326 0)
(0.0975148675 0.000892416579 0)
(0.0974017176 0.000894202652 0)
(0.0972881801 0.000892700903 0)
(0.0971746984 0.000887720684 0)
(0.0970617475 0.000879112776 0)
(0.0969498262 0.00086676443 0)
(0.0968394516 0.00085059291 0)
(0.0967311539 0.000830542424 0)
(0.0966254719 0.000806584183 0)
(0.0965229483 0.000778717471 0)
(0.0964241241 0.000746970209 0)
(0.0963295333 0.000711398762 0)
(0.0962396982 0.000672087413 0)
(0.0961551263 0.000629147916 0)
(0.0960763082 0.000582718958 0)
(0.0960037186 0.000532964923 0)
(0.0959378172 0.000480073645 0)
(0.0958790502 0.00042425298 0)
(0.0958278504 0.000365726923 0)
(0.0957846343 0.000304733781 0)
(0.0957497982 0.00024152408 0)
(0.0957237227 0.000176364931 0)
(0.0957067782 0.000109586102 0)
(0.0956991371 4.15556711e-05 0)
(0.0957009395 -2.75030659e-05 0)
(0.0957126242 -9.73538693e-05 0)
(0.0957345406 -0.000167596943 0)
(0.0957667663 -0.000237884044 0)
(0.09580932 -0.000307833143 0)
(0.0958621912 -0.000377014171 0)
(0.0959252897 -0.000444973324 0)
(0.0959984283 -0.000511233233 0)
(0.0960813317 -0.00057529726 0)
(0.0961736367 -0.000636658597 0)
(0.0962748879 -0.000694808253 0)
(0.0963845379 -0.000749244878 0)
(0.0965019522 -0.000799487722 0)
(0.096626414 -0.000845091103 0)
(0.096757132 -0.000885658906 0)
(0.0968932497 -0.000920857754 0)
(0.0970338576 -0.000950427609 0)
(0.0971780071 -0.000974189015 0)
(0.097324726 -0.000992046987 0)
(0.0974730346 -0.00100399192 0)
(0.0976219624 -0.00101009792 0)
(0.0977705644 -0.00101051891 0)
(0.0979179358 -0.00100548274 0)
(0.0980632256 -0.000995283481 0)
(0.0982056478 -0.000980272265 0)
(0.0983444904 -0.00096084699 0)
(0.0984791223 -0.000937441366 0)
(0.0986089972 -0.000910513772 0)
(0.0987336556 -0.000880536357 0)
(0.0988527241 -0.000847984754 0)
(0.0989659137 -0.000813328736 0)
(0.0990730157 -0.000777023986 0)
(0.0991738966 -0.000739505143 0)
(0.0992684922 -0.000701180164 0)
(0.0993568005 -0.000662425989 0)
(0.0994388752 -0.000623585376 0)
(0.0995148179 -0.000584964844 0)
(0.0995847717 -0.000546833532 0)
(0.0996489141 -0.000509422815 0)
(0.0997074521 -0.000472926806 0)
(0.0997606167 -0.000437504615 0)
(0.0998086585 -0.000403284548 0)
(0.0998518418 -0.000370367857 0)
(0.0998904393 -0.000338831548 0)
(0.0999247269 -0.000308730684 0)
(0.0999549798 -0.000280100499 0)
(0.0999814697 -0.000252958485 0)
(0.100004462 -0.000227306462 0)
(0.100024216 -0.000203132679 0)
(0.100040979 -0.000180414018 0)
(0.100054993 -0.000159118302 0)
(0.100066484 -0.000139206826 0)
(0.10007567 -0.000120635628 0)
(0.100082751 -0.000103356055 0)
(0.100087917 -8.73155049e-05 0)
(0.100091347 -7.24583515e-05 0)
(0.100093205 -5.8727256e-05 0)
(0.10009365 -4.60651542e-05 0)
(0.100092831 -3.44183385e-05 0)
(0.100090884 -2.37410637e-05 0)
(0.100087924 -1.40004907e-05 0)
(0.100084047 -5.16993675e-06 0)
(0.10007944 2.85273857e-06 0)
(0.100074223 1.01420551e-05 0)
(0.100068422 1.68182771e-05 0)
(0.100062082 2.28039138e-05 0)
(0.100055201 2.81262175e-05 0)
(0.100047818 3.28549163e-05 0)
(0.100040006 3.70592041e-05 0)
(0.100031869 4.0795525e-05 0)
(0.100023495 4.41014182e-05 0)
(0.10001495 4.70047799e-05 0)
(0.100006284 4.95333322e-05 0)
(0.0999975342 5.17149309e-05 0)
(0.0999887318 5.35757492e-05 0)
(0.0999799014 5.51406078e-05 0)
(0.099971064 5.64334519e-05 0)
(0.0999622389 5.74770364e-05 0)
(0.0999534445 5.82925806e-05 0)
(0.0999446982 5.88997847e-05 0)
(0.0999360166 5.93171371e-05 0)
(0.0999274154 5.95619865e-05 0)
(0.0999189097 5.96504044e-05 0)
(0.0999105134 5.9597025e-05 0)
(0.0999022393 5.94150228e-05 0)
(0.0998940987 5.91162282e-05 0)
(0.0998861014 5.87112499e-05 0)
(0.0998782558 5.82095814e-05 0)
(0.0998705692 5.76197341e-05 0)
(0.0998630474 5.69493967e-05 0)
(0.0998556952 5.62055934e-05 0)
(0.0998485162 5.53948249e-05 0)
(0.0998415132 5.45231802e-05 0)
(0.0998346883 5.35964146e-05 0)
(0.0998280431 5.261999e-05 0)
(0.0998215788 5.15990851e-05 0)
(0.0998152963 5.05385852e-05 0)
(0.0998091966 4.94430605e-05 0)
(0.0998032803 4.83167498e-05 0)
(0.0997975483 4.7163544e-05 0)
(0.0997920014 4.59869593e-05 0)
(0.0997866402 4.47901084e-05 0)
(0.0997814656 4.35756878e-05 0)
(0.0997764778 4.23459578e-05 0)
(0.0997716781 4.11027701e-05 0)
(0.0997670651 3.9847359e-05 0)
(0.0997626459 3.85810215e-05 0)
(0.0997583982 3.73018843e-05 0)
(0.099754402 3.6018705e-05 0)
(0.0997503942 3.46863079e-05 0)
(0.0997473382 3.3511314e-05 0)
(0.0997422083 3.14715512e-05 0)
(0.0999981147 4.61169195e-05 0)
(0.0999834085 0.000128461705 0)
(0.0999545412 0.000192028702 0)
(0.0999142838 0.00023112725 0)
(0.0998680309 0.000243161685 0)
(0.0998207768 0.000230192419 0)
(0.0997763778 0.000196125304 0)
(0.0997381209 0.000144074796 0)
(0.0997091231 7.66468494e-05 0)
(0.0996920678 -1.74015701e-06 0)
(0.0996882307 -8.26493463e-05 0)
(0.0996976495 -0.000153198108 0)
(0.0997186453 -0.000200275612 0)
(0.0997469992 -0.000213573963 0)
(0.0997769784 -0.000188518688 0)
(0.0998024006 -0.0001274492 0)
(0.0998179255 -3.86521758e-05 0)
(0.0998195463 6.56153987e-05 0)
(0.0998049657 0.0001722536 0)
(0.0997743668 0.000269580294 0)
(0.0997300418 0.000348624799 0)
(0.0996754558 0.000403720032 0)
(0.0996146464 0.000432393689 0)
(0.0995518265 0.000434832102 0)
(0.0994910631 0.000413262304 0)
(0.0994360224 0.000371520105 0)
(0.0993897517 0.000314936029 0)
(0.0993544421 0.000250472092 0)
(0.0993311307 0.000186815098 0)
(0.0993193852 0.000134006201 0)
(0.0993170978 0.000102301198 0)
(0.0993205358 0.00010031311 0)
(0.0993246963 0.000132895271 0)
(0.099323943 0.000199498135 0)
(0.0993129278 0.000293718329 0)
(0.0992876253 0.000404383518 0)
(0.0992461097 0.00051800731 0)
(0.0991888013 0.000621953575 0)
(0.0991181185 0.000707334038 0)
(0.0990376609 0.000770699488 0)
(0.0989511894 0.000814003907 0)
(0.0988617335 0.000842973479 0)
(0.0987710829 0.000864614581 0)
(0.0986797555 0.000884860179 0)
(0.0985873468 0.000907162225 0)
(0.0984930446 0.000932314569 0)
(0.098396086 0.000959230784 0)
(0.0982960174 0.000986082943 0)
(0.0981927418 0.00101123569 0)
(0.0980864241 0.00103368582 0)
(0.0979773584 0.00105303632 0)
(0.0978658689 0.00106922589 0)
(0.097752271 0.00108224956 0)
(0.0976368786 0.0010920034 0)
(0.0975200288 0.00109826451 0)
(0.0974021011 0.001100747 0)
(0.0972835247 0.00109916766 0)
(0.0971647732 0.00109328537 0)
(0.0970463563 0.00108291095 0)
(0.0969288104 0.00106790137 0)
(0.0968126914 0.00104815185 0)
(0.096698569 0.00102359236 0)
(0.0965870208 0.000994188298 0)
(0.0964786274 0.000959942487 0)
(0.0963739677 0.000920896156 0)
(0.0962736146 0.000877128138 0)
(0.0961781327 0.000828752261 0)
(0.0960880757 0.000775913546 0)
(0.0960039836 0.000718783905 0)
(0.0959263798 0.000657558028 0)
(0.095855767 0.000592450141 0)
(0.0957926251 0.000523691963 0)
(0.095737409 0.00045153154 0)
(0.0956905485 0.000376232924 0)
(0.0956524509 0.000298077352 0)
(0.0956234937 0.000217362666 0)
(0.0956040233 0.000134397713 0)
(0.0955944266 4.9501943e-05 0)
(0.0955950665 -3.68470051e-05 0)
(0.0956061693 -0.000124147934 0)
(0.0956279332 -0.000211994983 0)
(0.0956605375 -0.000299935726 0)
(0.0957040854 -0.000387454817 0)
(0.0957586036 -0.000474000859 0)
(0.0958240366 -0.00055899246 0)
(0.0959002346 -0.000641815152 0)
(0.0959869464 -0.000721828886 0)
(0.0960838143 -0.000798382304 0)
(0.0961903696 -0.000870826922 0)
(0.0963060324 -0.000938531739 0)
(0.0964301158 -0.00100089904 0)
(0.0965618332 -0.00105738011 0)
(0.0967003072 -0.00110749003 0)
(0.0968445834 -0.00115082126 0)
(0.0969936441 -0.00118705565 0)
(0.0971464265 -0.00121597397 0)
(0.0973018403 -0.00123746236 0)
(0.0974587877 -0.00125151515 0)
(0.0976161836 -0.00125823383 0)
(0.0977729746 -0.0012578224 0)
(0.0979281571 -0.00125057958 0)
(0.0980807933 -0.00123688829 0)
(0.0982300241 -0.00121720325 0)
(0.0983750793 -0.0011920372 0)
(0.0985152852 -0.00116194653 0)
(0.0986500679 -0.00112751672 0)
(0.0987789551 -0.00108934835 0)
(0.0989015744 -0.00104804402 0)
(0.0990176497 -0.00100419655 0)
(0.0991269958 -0.000958378695 0)
(0.0992295117 -0.000911134642 0)
(0.0993251727 -0.000862973157 0)
(0.0994140215 -0.0008143625 0)
(0.0994961604 -0.000765726873 0)
(0.0995717418 -0.000717444352 0)
(0.0996409604 -0.000669846081 0)
(0.0997040453 -0.000623216557 0)
(0.0997612529 -0.000577795008 0)
(0.0998128612 -0.000533777901 0)
(0.0998591633 -0.000491322427 0)
(0.0999004625 -0.000450550369 0)
(0.0999370665 -0.000411551845 0)
(0.0999692832 -0.000374388822 0)
(0.0999974169 -0.000339098502 0)
(0.100021765 -0.000305696609 0)
(0.100042615 -0.000274180506 0)
(0.100060244 -0.00024453195 0)
(0.100074915 -0.000216719416 0)
(0.100086876 -0.00019070001 0)
(0.10009636 -0.000166421137 0)
(0.100103589 -0.000143821981 0)
(0.100108769 -0.000122835096 0)
(0.100112096 -0.00010338819 0)
(0.100113753 -8.54058144e-05 0)
(0.100113912 -6.88106822e-05 0)
(0.10011273 -5.35244317e-05 0)
(0.100110354 -3.94677159e-05 0)
(0.100106917 -2.65601356e-05 0)
(0.100102563 -1.47262173e-05 0)
(0.100097522 -3.94084981e-06 0)
(0.100091858 5.8206738e-06 0)
(0.100085535 1.46157203e-05 0)
(0.100078644 2.25183198e-05 0)
(0.100071268 2.95700079e-05 0)
(0.100063474 3.58407135e-05 0)
(0.10005532 4.14132598e-05 0)
(0.100046857 4.63686179e-05 0)
(0.100038127 5.07721699e-05 0)
(0.100029168 5.46739629e-05 0)
(0.100020033 5.81142463e-05 0)
(0.100010773 6.11257615e-05 0)
(0.100001438 6.37355329e-05 0)
(0.0999920708 6.5967585e-05 0)
(0.0999827079 6.78452876e-05 0)
(0.0999733788 6.93922301e-05 0)
(0.0999641068 7.06321738e-05 0)
(0.0999549104 7.15890257e-05 0)
(0.0999458051 7.22866346e-05 0)
(0.0999368046 7.27481147e-05 0)
(0.0999279208 7.29953303e-05 0)
(0.0999191639 7.30486133e-05 0)
(0.0999105431 7.29265767e-05 0)
(0.0999020664 7.26461172e-05 0)
(0.0998937415 7.22225732e-05 0)
(0.0998855751 7.16698701e-05 0)
(0.0998775733 7.10006219e-05 0)
(0.0998697416 7.0226235e-05 0)
(0.0998620845 6.93570225e-05 0)
(0.0998546062 6.84023137e-05 0)
(0.09984731 6.73705596e-05 0)
(0.0998401989 6.62694367e-05 0)
(0.099833275 6.51059456e-05 0)
(0.0998265401 6.38865009e-05 0)
(0.0998199955 6.26170041e-05 0)
(0.099813642 6.13029019e-05 0)
(0.0998074802 5.99492245e-05 0)
(0.0998015101 5.85605936e-05 0)
(0.099795732 5.7141212e-05 0)
(0.0997901455 5.56948584e-05 0)
(0.0997847505 5.42248897e-05 0)
(0.0997795469 5.2734245e-05 0)
(0.0997745341 5.12254233e-05 0)
(0.0997697126 4.97005208e-05 0)
(0.09976508 4.81609994e-05 0)
(0.0997606431 4.66085239e-05 0)
(0.0997563775 4.50412771e-05 0)
(0.099752365 4.34701992e-05 0)
(0.0997483271 4.18437785e-05 0)
(0.0997452546 4.04084478e-05 0)
(0.0997399616 3.7952202e-05 0)
(0.0999980896 5.55212289e-05 0)
(0.0999832313 0.000154831756 0)
(0.0999541579 0.000231866865 0)
(0.0999137304 0.000280184247 0)
(0.0998673745 0.000296841382 0)
(0.0998200204 0.000284146328 0)
(0.099775452 0.000246489655 0)
(0.0997369326 0.000187409248 0)
(0.0997074852 0.000109911472 0)
(0.0996895194 1.92087915e-05 0)
(0.0996853377 -7.48512123e-05 0)
(0.0996952521 -0.000158247996 0)
(0.0997166238 -0.000215671933 0)
(0.0997453177 -0.000234820504 0)
(0.0997757473 -0.000210014264 0)
(0.0998018344 -0.000143583873 0)
(0.0998180065 -4.48900251e-05 0)
(0.0998203519 7.21797124e-05 0)
(0.0998071636 0.000192611099 0)
(0.0997785571 0.000302931395 0)
(0.0997363145 0.000392712496 0)
(0.0996835986 0.000455278904 0)
(0.0996243594 0.000487640941 0)
(0.0995627921 0.000489883563 0)
(0.0995029687 0.000464416241 0)
(0.0994485858 0.000415449021 0)
(0.0994027627 0.00034888232 0)
(0.0993678157 0.000272523664 0)
(0.0993449585 0.000196260167 0)
(0.0993339587 0.000131679267 0)
(0.0993328605 9.07777596e-05 0)
(0.0993379288 8.38022661e-05 0)
(0.099343995 0.000116757186 0)
(0.0993452662 0.000189422359 0)
(0.099336349 0.000294693124 0)
(0.0993131889 0.000419723569 0)
(0.0992737601 0.000548739639 0)
(0.0992183289 0.000666766898 0)
(0.0991491664 0.00076312409 0)
(0.0990697792 0.000833538533 0)
(0.0989839071 0.000880210006 0)
(0.0988946159 0.000909931552 0)
(0.0988037564 0.000931121832 0)
(0.0987119008 0.000950973428 0)
(0.0986186734 0.000973713532 0)
(0.0985232633 0.00100034958 0)
(0.0984248905 0.00102958737 0)
(0.0983230796 0.0010592085 0)
(0.0982177151 0.00108721457 0)
(0.0981089523 0.00111237505 0)
(0.0979970836 0.00113420479 0)
(0.0978824378 0.00115263676 0)
(0.0977653398 0.00116767889 0)
(0.0976461178 0.00117922032 0)
(0.0975251278 0.00118700387 0)
(0.0974027738 0.00119069313 0)
(0.0972795145 0.00118995289 0)
(0.0971558583 0.00118449802 0)
(0.0970323539 0.0011741062 0)
(0.0969095807 0.00115861088 0)
(0.0967881411 0.0011378914 0)
(0.096668654 0.00111186803 0)
(0.0965517484 0.00108050159 0)
(0.0964380568 0.00104379438 0)
(0.0963282082 0.00100178992 0)
(0.0962228199 0.000954570938 0)
(0.0961224912 0.00090225644 0)
(0.0960277971 0.00084499878 0)
(0.0959392874 0.000782980943 0)
(0.0958574872 0.0007164137 0)
(0.0957829009 0.000645532493 0)
(0.0957160151 0.000570594071 0)
(0.0956573011 0.00049187349 0)
(0.0956072145 0.00040966289 0)
(0.0955661912 0.000324271528 0)
(0.0955346448 0.000236029008 0)
(0.095512966 0.000145298149 0)
(0.0955015022 5.24752346e-05 0)
(0.0955005804 -4.20765608e-05 0)
(0.0955105488 -0.000137941166 0)
(0.0955317145 -0.000234645507 0)
(0.095564298 -0.000331678606 0)
(0.0956084396 -0.000428474827 0)
(0.0956642043 -0.000524413872 0)
(0.0957315703 -0.000618828501 0)
(0.095810415 -0.000711010066 0)
(0.095900506 -0.000800216818 0)
(0.0960014944 -0.000885686232 0)
(0.096112908 -0.000966649928 0)
(0.0962341484 -0.00104235142 0)
(0.0963644912 -0.0011120667 0)
(0.0965030921 -0.00117512616 0)
(0.0966489956 -0.00123093592 0)
(0.0968011493 -0.0012789971 0)
(0.0969584225 -0.00131892171 0)
(0.0971196271 -0.00135044433 0)
(0.097283542 -0.00137342936 0)
(0.0974489374 -0.00138787353 0)
(0.0976145996 -0.00139390398 0)
(0.0977793551 -0.00139177202 0)
(0.0979420917 -0.00138184307 0)
(0.0981017775 -0.00136458329 0)
(0.0982574756 -0.00134054374 0)
(0.0984083562 -0.00131034293 0)
(0.0985537036 -0.0012746486 0)
(0.0986929201 -0.00123415956 0)
(0.0988255264 -0.00118958838 0)
(0.0989511583 -0.00114164537 0)
(0.0990695612 -0.00109102449 0)
(0.099180583 -0.00103839122 0)
(0.0992841645 -0.000984372783 0)
(0.0993803296 -0.000929550548 0)
(0.0994691745 -0.000874454633 0)
(0.0995508576 -0.00081956045 0)
(0.0996255887 -0.000765287087 0)
(0.0996936193 -0.000711997253 0)
(0.0997552338 -0.000659998527 0)
(0.0998107411 -0.000609545811 0)
(0.0998604673 -0.000560844747 0)
(0.0999047496 -0.00051405583 0)
(0.0999439297 -0.000469298921 0)
(0.0999783495 -0.000426657729 0)
(0.100008346 -0.000386184065 0)
(0.100034248 -0.00034790177 0)
(0.100056372 -0.000311810334 0)
(0.100075025 -0.000277888259 0)
(0.100090497 -0.000246096294 0)
(0.100103066 -0.000216380746 0)
(0.100112996 -0.000188676792 0)
(0.100120536 -0.000162911513 0)
(0.100125919 -0.000139006338 0)
(0.100129359 -0.000116878777 0)
(0.100131056 -9.64436676e-05 0)
(0.100131193 -7.76143079e-05 0)
(0.100129941 -6.03038263e-05 0)
(0.100127458 -4.44270181e-05 0)
(0.100123896 -2.99028913e-05 0)
(0.100119387 -1.66551592e-05 0)
(0.100113981 -4.59948158e-06 0)
(0.100107716 6.41553269e-06 0)
(0.100100815 1.63361365e-05 0)
(0.100093456 2.52402601e-05 0)
(0.100085647 3.3203121e-05 0)
(0.100077426 4.02967986e-05 0)
(0.100068842 4.65872499e-05 0)
(0.100059943 5.21373157e-05 0)
(0.100050786 5.70055112e-05 0)
(0.100041434 6.12483685e-05 0)
(0.100031951 6.4923451e-05 0)
(0.100022381 6.80867167e-05 0)
(0.100012758 7.0788991e-05 0)
(0.10000311 7.30751337e-05 0)