/*--------------------------------*- C++ -*----------------------------------*\
| =========                 |                                                 |
| \\      /  F ield         | OpenFOAM: The Open Source CFD Toolbox           |
|  \\    /   O peration     | Version:  v2012                                 |
|   \\  /    A nd           | Website:  www.openfoam.com                      |
|    \\/     M anipulation  |                                                 |
\*---------------------------------------------------------------------------*/
FoamFile
{
    version     2.0;
    format      ascii;
    class       volScalarField;
    location    "2.24";
    object      p;
}
// * * * * * * * * * * * * * * * * * * * * * * * * * * * * * * * * * * * * * //

dimensions      [0 2 -2 0 0 0 0];


internalField   nonuniform List<scalar> 
28416
(
0.0286176335
0.0286187833
0.0286213541
0.028625183
0.0286300773
0.0286359955
0.0286429624
0.0286509941
0.0286602135
0.0286699369
0.0286801879
0.0286911872
0.0287029117
0.0287153465
0.0287284123
0.0287419622
0.0287558078
0.0287698327
0.0287838933
0.028798115
0.0288122612
0.0288261272
0.0288395836
0.0288524729
0.0288646079
0.0288757931
0.0288858274
0.0288945048
0.0289016193
0.0289069654
0.028910335
0.0289115138
0.0289102783
0.028906392
0.0288996004
0.0288896356
0.0288762347
0.0288591457
0.0288381223
0.0288129265
0.0287833317
0.0287491238
0.0287101024
0.0286660798
0.0286168818
0.0285623472
0.0285023301
0.0284367008
0.0283653473
0.0282881775
0.0282051193
0.0281161214
0.0280211541
0.0279202089
0.0278132986
0.0277004569
0.0275817384
0.0274572174
0.0273269875
0.0271911604
0.0270498643
0.0269032434
0.0267514557
0.0265946716
0.0264330723
0.0262668482
0.0260961968
0.0259213213
0.0257424286
0.0255597275
0.0253734276
0.0251837373
0.024990863
0.024795008
0.024596371
0.0243951447
0.0241915141
0.0239856611
0.0237777135
0.0235679882
0.0233564627
0.023143311
0.0229286912
0.0227127214
0.022495515
0.0222771827
0.0220578255
0.0218375355
0.0216163986
0.0213944944
0.0211718966
0.0209486737
0.0207248902
0.0205006066
0.0202758805
0.0200507671
0.0198253194
0.0195995892
0.0193736268
0.0191474815
0.0189212021
0.0186948364
0.0184684315
0.0182420337
0.0180156883
0.0177894397
0.0175633308
0.0173374031
0.0171116963
0.0168862484
0.0166610954
0.0164362709
0.0162118066
0.0159877318
0.0157640741
0.0155408591
0.0153181115
0.0150958565
0.0148741138
0.0146528954
0.0144322087
0.014212058
0.0139924457
0.0137733726
0.0135548382
0.0133368409
0.0131193785
0.0129024479
0.0126860466
0.0124701725
0.0122548218
0.0120399891
0.0118256675
0.0116118484
0.0113985211
0.0111856728
0.0109732879
0.010761348
0.0105498319
0.0103387135
0.010127946
0.00991743484
0.00970726429
0.00949745297
0.00928803688
0.00907899955
0.00887031455
0.00866196243
0.00845393366
0.00824622129
0.00803881744
0.00783171355
0.00762490112
0.00741837186
0.00721211724
0.00700612839
0.0068003963
0.00659491183
0.00638966582
0.0061846492
0.005979853
0.00577526832
0.00557088646
0.00536669886
0.00516269711
0.00495887296
0.00475521836
0.00455172533
0.00434838604
0.00414519283
0.0039421381
0.00373921438
0.00353641431
0.00333373061
0.00313115605
0.00292868357
0.0027263061
0.00252401666
0.00232180836
0.00211967438
0.00191760792
0.0017156022
0.00151365056
0.00131174622
0.00110988257
0.000908052415
0.000706250288
0.000504463411
0.000302700132
0.000100876231
0.0286115813
0.0286123932
0.0286146607
0.0286183547
0.0286232177
0.028629144
0.0286361385
0.0286441993
0.0286532629
0.0286628583
0.0286736745
0.028685181
0.0286973592
0.0287101475
0.0287234632
0.0287372189
0.0287513592
0.0287658512
0.028780539
0.0287952152
0.0288097915
0.028824109
0.0288380005
0.0288513054
0.0288638512
0.0288754544
0.0288859242
0.0288950615
0.0289026591
0.0289085028
0.0289123711
0.0289140351
0.0289132572
0.0289097926
0.0289033911
0.0288937988
0.0288807627
0.0288640339
0.0288433683
0.0288185288
0.0287892867
0.0287554239
0.028716734
0.0286730231
0.0286241111
0.0285698328
0.0285100391
0.0284445983
0.0283733974
0.0282963433
0.0282133633
0.0281244062
0.0280294422
0.0279284638
0.0278214848
0.027708541
0.0275896888
0.0274650052
0.0273345864
0.0271985472
0.0270570191
0.0269101494
0.0267580994
0.0266010429
0.0264391642
0.0262726569
0.0261017214
0.0259265637
0.0257473933
0.0255644219
0.0253778616
0.0251879234
0.0249948161
0.0247987447
0.0245999095
0.0243985058
0.0241947212
0.0239887249
0.0237807066
0.0235707986
0.0233591793
0.0231459712
0.0229313071
0.0227153138
0.0224981047
0.0222797857
0.0220604546
0.0218402007
0.0216191064
0.0213972475
0.0211746943
0.0209515117
0.0207277608
0.0205034989
0.0202787809
0.0200536596
0.0198281863
0.0196024112
0.0193763842
0.0191501546
0.0189237715
0.0186972839
0.0184707403
0.018244189
0.0180176776
0.0177912528
0.01756496
0.0173388434
0.0171129454
0.0168873064
0.0166619647
0.0164369561
0.0162123143
0.0159880703
0.0157642528
0.015540888
0.0153180002
0.0150956107
0.014873737
0.0146523918
0.014431584
0.0142113195
0.0139916019
0.013772433
0.0135538128
0.0133357401
0.0131182123
0.0129012258
0.0126847757
0.0124688556
0.0122534587
0.0120385777
0.0118242041
0.0116103276
0.0113969367
0.0111840181
0.0109715566
0.0107595334
0.0105479221
0.0103366952
0.0101258513
0.00991549484
0.00970543866
0.00949573612
0.00928638994
0.00907740356
0.00886876821
0.0086604724
0.0084525048
0.00824485534
0.00803751445
0.0078304724
0.00762371959
0.00741724696
0.00721104566
0.00700510691
0.00679942197
0.00659398204
0.00638877831
0.00618380205
0.00597904452
0.00577449707
0.00557015116
0.00536599838
0.0051620304
0.00495823908
0.0047546164
0.00455115443
0.00434784536
0.00414468157
0.00394165548
0.00373875964
0.00353598674
0.00333332952
0.00313078081
0.00292833357
0.00272598081
0.00252371558
0.00232153104
0.00211942041
0.00191737692
0.00171539382
0.0015134645
0.00131158222
0.00110974046
0.00090793211
0.000706152042
0.000504387908
0.000302650093
0.000100855344
0.0286054084
0.0286063855
0.0286087822
0.0286125476
0.0286174727
0.0286234739
0.0286305543
0.0286386971
0.0286478286
0.028657836
0.0286685485
0.0286801494
0.0286925477
0.0287056556
0.028719396
0.0287336809
0.0287483861
0.0287633396
0.0287784277
0.0287935743
0.0288086584
0.0288235288
0.02883802
0.0288519618
0.028865176
0.028877474
0.0288886584
0.0288985243
0.0289068609
0.0289134526
0.0289180784
0.0289205089
0.0289205057
0.0289178238
0.028912211
0.0289034097
0.0288911616
0.0288752109
0.0288553071
0.0288312064
0.0288026748
0.0287694888
0.0287314371
0.0286883209
0.0286399553
0.0285861704
0.0285268125
0.028461746
0.0283908543
0.0283140415
0.0282312331
0.0281423767
0.0280474423
0.0279464226
0.0278393329
0.0277262107
0.0276071151
0.0274821264
0.0273513448
0.0272148891
0.027072896
0.0269255178
0.0267729214
0.0266152861
0.0264528021
0.0262856688
0.0261140924
0.0259382845
0.0257584602
0.025574836
0.0253876288
0.0251970536
0.0250033226
0.024806644
0.0246072206
0.0244052485
0.0242009176
0.0239944113
0.0237858875
0.0235755331
0.0233634813
0.0231498741
0.022934846
0.0227185192
0.0225010062
0.0222824113
0.0220628301
0.0218423497
0.0216210498
0.0213990034
0.0211762775
0.0209529343
0.0207290317
0.0205046246
0.0202797652
0.0200545042
0.0198288913
0.0196029754
0.0193768054
0.0191504303
0.0189238991
0.0186972611
0.0184705656
0.0182438617
0.0180171982
0.017790623
0.0175641829
0.0173379233
0.0171118879
0.0168861183
0.0166606537
0.0164355309
0.0162107842
0.0159864449
0.0157625416
0.0155391004
0.0153161443
0.0150936932
0.0148717638
0.0146503689
0.0144295179
0.0142092171
0.0139894704
0.0137702795
0.0135516441
0.0133335625
0.0131160316
0.0128990468
0.0126826027
0.0124666925
0.0122513091
0.0120364442
0.0118220888
0.0116082325
0.0113948635
0.0111819688
0.0109695338
0.010757544
0.0105459907
0.0103348711
0.0101241771
0.00991379832
0.00970377361
0.00949411438
0.00928481995
0.00907588427
0.00886729628
0.0086590438
0.00845111638
0.00824350539
0.00803620262
0.00782919937
0.00762248662
0.00741605535
0.0072098964
0.00700400052
0.00679835853
0.00659296126
0.00638779962
0.00618286466
0.00597814752
0.00577363948
0.00556933199
0.00536521665
0.00516128519
0.00495752951
0.00475394165
0.00455051373
0.00434723802
0.00414410692
0.00394111291
0.00373824858
0.00353550666
0.0033328799
0.00313036118
0.00292794346
0.00272561978
0.00252338321
0.00232122693
0.0021191442
0.00191712829
0.00171517252
0.00151327029
0.00131141497
0.0011096001
0.000907818701
0.000706065722
0.000504328863
0.000302617623
0.000100847244
0.0285972369
0.0285981516
0.0286005085
0.0286042921
0.028609294
0.0286154186
0.0286226586
0.0286309956
0.0286403753
0.0286507516
0.0286619752
0.0286740509
0.0286869168
0.0287005009
0.0287147251
0.0287294922
0.0287446897
0.0287602158
0.0287759763
0.0287918479
0.0288076757
0.0288233078
0.0288385895
0.0288533548
0.0288674253
0.0288806124
0.0288927194
0.028903542
0.0289128677
0.0289204743
0.0289261308
0.028929599
0.0289306355
0.0289289882
0.0289243995
0.0289166106
0.0289053611
0.0288903921
0.0288714485
0.0288482815
0.0288206506
0.0287883252
0.0287510862
0.028708727
0.0286610551
0.0286078935
0.0285490828
0.0284844822
0.0284139711
0.0283374504
0.0282548435
0.0281660967
0.0280711799
0.0279700865
0.0278628338
0.027749462
0.0276300343
0.0275046356
0.0273733715
0.0272363672
0.0270937658
0.026945727
0.026792425
0.0266340466
0.0264707898
0.0263028612
0.0261304743
0.0259538479
0.0257732036
0.0255887647
0.0254007544
0.0252093938
0.0250149008
0.0248174886
0.0246173641
0.0244147273
0.0242097697
0.0240026728
0.0237936126
0.0235827473
0.0233702321
0.0231562069
0.022940802
0.0227241383
0.0225063261
0.0222874665
0.0220676514
0.0218469637
0.021625479
0.0214032655
0.0211803857
0.0209568968
0.0207328522
0.0205083026
0.0202832961
0.0200578803
0.0198321021
0.0196060085
0.0193796472
0.0191530668
0.0189263166
0.0186994468
0.0184725082
0.018245552
0.018018629
0.0177917899
0.0175650841
0.0173385596
0.0171122628
0.0168862375
0.0166605254
0.016435165
0.0162101921
0.0159856394
0.0157615364
0.0155379093
0.0153147811
0.0150921715
0.0148700966
0.0146485692
0.0144275986
0.014207191
0.0139873503
0.0137680778
0.0135493728
0.0133312331
0.0131136548
0.0128966328
0.0126801606
0.0124642309
0.0122488351
0.0120339641
0.0118196073
0.0116057537
0.0113923912
0.0111795072
0.0109670889
0.010755123
0.0105435908
0.0103324519
0.0101217184
0.00991137499
0.00970141216
0.00949182252
0.00928259749
0.00907372898
0.00886520808
0.00865702498
0.00844916933
0.00824163063
0.00803439882
0.00782746434
0.0076208179
0.00741445036
0.00720835267
0.00700251584
0.00679693095
0.00659158904
0.00638648123
0.00618159876
0.00597693295
0.00577247524
0.00556821714
0.0053641503
0.00516026647
0.00495655756
0.0047530156
0.00454963275
0.00434640125
0.00414331355
0.00394036214
0.00373753962
0.00353483877
0.00333225239
0.00312977338
0.00292739477
0.00272510965
0.00252291113
0.00232079247
0.00211874697
0.00191676795
0.00171484877
0.00151298291
0.0013111638
0.00110938505
0.000907639781
0.000705923147
0.000504223019
0.000302550488
0.000100821068
0.0285873989
0.0285883469
0.0285907676
0.0285946454
0.0285997715
0.0286060529
0.0286134859
0.0286220554
0.0286317109
0.0286423766
0.0286539557
0.0286664756
0.0286798586
0.0286940288
0.0287088936
0.0287243629
0.0287403414
0.0287567198
0.0287733592
0.0287901348
0.0288069203
0.0288235669
0.0288399118
0.0288557848
0.0288710072
0.0288853912
0.0288987399
0.0289108469
0.0289214964
0.0289304637
0.0289375154
0.0289424077
0.0289448854
0.02894469
0.0289415588
0.0289352237
0.0289254158
0.0289118675
0.0288943145
0.0288724985
0.028846169
0.0288150854
0.0287790182
0.0287377508
0.0286910808
0.0286388223
0.0285808075
0.0285168882
0.028446938
0.0283708528
0.0282885524
0.0281999812
0.0281051081
0.0280039277
0.0278964592
0.0277827465
0.0276628577
0.0275368838
0.0274049376
0.0272671524
0.0271236804
0.0269746908
0.0268203679
0.0266609092
0.0264965232
0.0263274275
0.0261538465
0.0259760094
0.0257941483
0.0256084957
0.0254192832
0.0252267395
0.0250310892
0.0248325513
0.0246313383
0.024427655
0.0242216974
0.0240136518
0.0238036935
0.0235919883
0.0233786887
0.0231639369
0.0229478641
0.02273059
0.0225122229
0.0222928606
0.0220725908
0.0218514919
0.0216296341
0.02140708
0.0211838863
0.0209601046
0.0207357827
0.0205109659
0.0202856979
0.0200600221
0.0198339822
0.0196076229
0.0193809903
0.0191541323
0.0189270984
0.0186999396
0.0184727082
0.0182454573
0.0180182401
0.0177911095
0.0175641176
0.017337315
0.0171107503
0.0168844697
0.0166585164
0.0164329307
0.0162077496
0.0159830063
0.0157587307
0.015534949
0.0153116839
0.0150889543
0.0148667757
0.0146451601
0.0144241161
0.0142036495
0.0139837632
0.0137644579
0.0135457321
0.0133275826
0.0131100043
0.012892991
0.0126765351
0.012460628
0.0122452603
0.0120304217
0.0118161011
0.0116022863
0.0113889645
0.0111761209
0.0109637394
0.0107518028
0.0105403053
0.0103293048
0.0101186767
0.00990842609
0.00969855079
0.00948904765
0.00927990839
0.00907112436
0.00886268621
0.00865458386
0.00844680719
0.0082393466
0.00803219284
0.00782533644
0.00761876781
0.00741247743
0.00720645588
0.00700069379
0.00679518201
0.00658991146
0.00638487322
0.00618005853
0.00597545878
0.00577106542
0.00556687003
0.00536286435
0.0051590402
0.00495538959
0.00475190466
0.00454857762
0.00434540082
0.00414236676
0.00393946802
0.00373669726
0.00353404729
0.00333151099
0.00312908128
0.00292675127
0.00272451405
0.00252236282
0.00232029086
0.00211829153
0.00191635821
0.00171448433
0.00151266343
0.001310889
0.00110915475
0.000907453885
0.000705781551
0.000504125578
0.000302495727
0.000100806425
0.028575854
0.0285768394
0.028579337
0.0285833371
0.0285886353
0.0285951399
0.0286028494
0.0286117524
0.0286217994
0.0286329322
0.0286450868
0.0286581954
0.0286722093
0.0286870541
0.0287026532
0.0287189155
0.028735739
0.0287530098
0.028770617
0.0287884361
0.028806329
0.0288241478
0.028841733
0.028858915
0.0288755139
0.0288913391
0.0289061899
0.0289198548
0.0289321118
0.0289427278
0.028951459
0.0289580539
0.0289622569
0.0289638007
0.0289624119
0.0289578147
0.0289497303
0.0289378801
0.0289219882
0.0289017844
0.0288770066
0.0288474021
0.0288127295
0.0287727603
0.0287272808
0.028676094
0.0286190222
0.0285559083
0.0284866183
0.0284110423
0.0283290959
0.0282407207
0.0281458852
0.0280445845
0.027936841
0.027822703
0.0277022446
0.0275755646
0.0274427849
0.027304049
0.0271595204
0.0270093805
0.0268538261
0.0266930679
0.0265273275
0.0263568353
0.0261818281
0.0260025471
0.0258192356
0.0256321375
0.0254414949
0.025247547
0.0250505278
0.024850665
0.0246481782
0.0244432782
0.0242361661
0.0240270325
0.0238160568
0.0236034026
0.0233892264
0.0231736702
0.0229568628
0.022738921
0.0225199502
0.0223000442
0.0220792857
0.0218577477
0.0216354937
0.0214125795
0.0211890547
0.0209649633
0.0207403461
0.0205152417
0.0202896878
0.0200637224
0.0198373854
0.0196107182
0.0193837653
0.0191565738
0.0189291937
0.0187016773
0.0184740791
0.0182464549
0.0180188612
0.0177913544
0.0175639902
0.0173368224
0.0171099032
0.0168832815
0.0166570033
0.0164311109
0.016205643
0.0159806339
0.0157561144
0.0155321109
0.015308646
0.0150857382
0.0148634024
0.0146416499
0.0144204886
0.0141999232
0.0139799558
0.0137605861
0.0135418114
0.0133236273
0.013106028
0.0128890062
0.0126725533
0.0124566599
0.0122413154
0.0120265085
0.0118122272
0.011598459
0.0113851914
0.0111724127
0.0109601126
0.010748278
0.0105368572
0.0103258324
0.0101152388
0.00990505283
0.00969525664
0.0094858383
0.00927678705
0.00906809263
0.0088597448
0.00865173319
0.00844404731
0.0082366768
0.00802961167
0.00782284219
0.00761635887
0.00741015235
0.00720421325
0.00699853231
0.00679310037
0.0065879084
0.00638294744
0.00617820872
0.00597368361
0.00576936357
0.00556524021
0.00536130526
0.0051575506
0.00495396823
0.00475055032
0.00454728911
0.00434417695
0.0041412064
0.00393837006
0.00373566063
0.00353307099
0.00333059406
0.00312822286
0.00292595054
0.00272377027
0.0025216753
0.002319659
0.00211771478
0.00191583608
0.00171401641
0.00151224936
0.00131052851
0.00110884763
0.00090719999
0.000705580914
0.000503978378
0.000302403686
0.000100771855
0.0285625464
0.0285635764
0.0285661692
0.0285703167
0.0285758139
0.0285825704
0.028590587
0.0285998544
0.0286103287
0.0286219534
0.0286346731
0.0286484372
0.0286631803
0.0286788322
0.0286953094
0.0287125225
0.0287303727
0.0287487555
0.0287675583
0.0287866546
0.0288059021
0.0288251497
0.0288442375
0.028862995
0.0288812413
0.0288987841
0.0289154206
0.0289309368
0.0289451076
0.0289576972
0.0289684592
0.0289771342
0.0289834483
0.0289871239
0.0289878772
0.0289854186
0.0289794567
0.0289697002
0.0289558598
0.0289376511
0.0289147969
0.0288870291
0.0288540907
0.0288157374
0.0287717407
0.0287218895
0.0286659933
0.0286038841
0.0285354184
0.0284604789
0.0283789757
0.0282908472
0.0281960606
0.0280946126
0.0279865286
0.0278718625
0.0277506962
0.0276231377
0.0274893202
0.0273493998
0.0272035537
0.0270519782
0.0268948855
0.0267325022
0.026565066
0.0263928238
0.0262160287
0.0260349381
0.0258498108
0.0256609047
0.0254684752
0.0252727727
0.0250740417
0.0248725188
0.0246684319
0.0244619992
0.0242534281
0.0240429131
0.0238306351
0.0236167666
0.0234014619
0.0231848648
0.0229671043
0.0227482953
0.0225285397
0.0223079262
0.0220865316
0.0218644215
0.0216416514
0.0214182685
0.0211943132
0.0209698207
0.0207448229
0.0205193501
0.0202934327
0.0200671025
0.0198403942
0.0196133459
0.019386
0.0191584028
0.018930605
0.0187026608
0.0184746274
0.0182465641
0.0180185312
0.0177905895
0.0175627986
0.0173352167
0.0171078995
0.0168808992
0.0166542646
0.0164280402
0.0162022662
0.0159769783
0.0157522075
0.0155279803
0.015304319
0.0150812412
0.014858761
0.0146368884
0.0144156299
0.0141949891
0.0139749666
0.0137555606
0.013536767
0.01331858
0.013100992
0.0128839939
0.0126675755
0.0124517258
0.0122364326
0.0120216835
0.0118074653
0.0115937644
0.0113805664
0.0111678557
0.0109556165
0.0107438429
0.0105325352
0.0103216415
0.0101111608
0.00990108338
0.00969139698
0.00948208943
0.00927314935
0.00906456589
0.00885632838
0.00864842636
0.00844084941
0.00823358713
0.00802662927
0.00781996576
0.00761358675
0.00740748261
0.00720164381
0.00699606101
0.00679072508
0.00658562695
0.00638075773
0.00617610869
0.00597167125
0.00576743693
0.0055633974
0.00535954448
0.00515587011
0.00495236639
0.00474902557
0.00454583998
0.00434280208
0.00413990448
0.00393713988
0.00373450104
0.0035319809
0.00332957244
0.00312726872
0.00292506295
0.00272294835
0.00252091824
0.00231896604
0.00211708524
0.00191526934
0.00171351192
0.00151180667
0.00131014722
0.00110852744
0.000906940667
0.000705382228
0.000503840059
0.000302324272
0.000100748812
0.0285474101
0.0285484924
0.0285511985
0.0285555228
0.0285612601
0.0285683208
0.0285767087
0.0285864182
0.0285974072
0.0286096223
0.0286230071
0.0286375092
0.0286530696
0.0286696167
0.0286870714
0.0287053474
0.0287243515
0.0287439796
0.0287641142
0.0287846256
0.0288053804
0.0288262329
0.0288470234
0.0288675796
0.0288877189
0.0289072474
0.0289259596
0.0289436374
0.0289600495
0.0289749505
0.0289880811
0.0289991706
0.0290079428
0.029014106
0.0290173625
0.0290174097
0.0290139402
0.029006645
0.0289952175
0.0289793552
0.0289587631
0.0289331546
0.0289022547
0.0288658011
0.0288235478
0.0287752671
0.0287207532
0.0286598247
0.0285923265
0.0285181322
0.0284371453
0.0283493
0.0282545622
0.0281529299
0.0280444326
0.0279291311
0.0278071161
0.0276785074
0.0275434515
0.0274021201
0.0272547074
0.0271014277
0.0269425124
0.0267782077
0.026608771
0.0264344688
0.0262555728
0.0260723582
0.0258851008
0.0256940746
0.0254995499
0.0253017915
0.0251010567
0.0248975941
0.0246916418
0.0244834264
0.0242731618
0.0240610496
0.0238472773
0.023632019
0.0234154305
0.0231976549
0.0229788199
0.0227590377
0.0225384058
0.0223170074
0.0220949121
0.0218721768
0.0216488475
0.0214249607
0.0212005457
0.0209756262
0.020750223
0.0205243561
0.0202980466
0.0200713185
0.0198442004
0.0196167261
0.0193889355
0.0191608746
0.0189325952
0.0187041541
0.0184756123
0.0182470338
0.0180184841
0.0177900294
0.0175617347
0.0173336632
0.0171058751
0.0168784269
0.0166513706
0.0164247534
0.0161986175
0.0159729996
0.0157479314
0.0155234394
0.0152995454
0.0150762662
0.0148536145
0.014631599
0.0144102245
0.0141894929
0.0139694029
0.0137499508
0.0135311308
0.013312935
0.0130953543
0.0128783782
0.0126619951
0.0124461927
0.0122309578
0.0120162766
0.0118021347
0.0115885176
0.0113754105
0.0111627999
0.0109506723
0.010738992
0.0105277721
0.010316985
0.0101066161
0.00989665197
0.00968708089
0.00947789056
0.00926906902
0.00906060473
0.00885248636
0.00864470279
0.00843724307
0.0082300966
0.0080232532
0.00781670284
0.00761043558
0.0074044417
0.00719871158
0.0069932358
0.00678800512
0.00658301047
0.00637824289
0.00617369366
0.0059693542
0.00576521606
0.00556127094
0.0053575107
0.00515392731
0.00495051293
0.00474725982
0.00454416037
0.00434120705
0.00413839256
0.00393570961
0.00373315108
0.00353070996
0.00332837931
0.00312615229
0.00292402219
0.00272198233
0.0025200261
0.002318147
0.00211633859
0.00191459446
0.00171290825
0.00151127372
0.00130968458
0.00110813476
0.00090661768
0.000705128777
0.000503656111
0.000302210929
0.000100707981
0.0285303688
0.0285315108
0.028534346
0.0285388703
0.0285448762
0.0285522749
0.0285610731
0.0285712687
0.0285828225
0.0285956834
0.028609804
0.0286251337
0.0286416111
0.0286591681
0.0286777286
0.0286972089
0.0287175152
0.0287385447
0.0287601859
0.0287823182
0.0288048044
0.028827495
0.0288502304
0.0288728397
0.0288951399
0.0289169348
0.0289380151
0.0289581575
0.0289771249
0.0289946665
0.0290105186
0.0290244031
0.0290360187
0.0290450646
0.0290512277
0.0290541869
0.0290536164
0.0290491884
0.0290405763
0.0290274568
0.0290095128
0.028986436
0.0289579288
0.0289237069
0.0288835028
0.0288370687
0.0287841802
0.0287246396
0.028658278
0.0285849581
0.028504575
0.0284170582
0.028322372
0.0282205157
0.028111524
0.0279954654
0.027872442
0.0277425873
0.0276060641
0.0274630625
0.027313797
0.0271585031
0.0269974349
0.0268308613
0.0266590631
0.0264823295
0.0263009553
0.0261152375
0.0259254729
0.0257319555
0.0255349734
0.0253348079
0.0251317306
0.0249260029
0.0247178738
0.0245075799
0.0242953435
0.0240813728
0.0238658597
0.0236489831
0.0234309001
0.0232117546
0.0229916736
0.0227707665
0.0225491259
0.0223268283
0.0221039346
0.0218804914
0.0216565329
0.0214320826
0.021207156
0.0209817629
0.0207559104
0.0205296058
0.0203028586
0.0200756834
0.0198481014
0.0196201414
0.0193918409
0.0191632457
0.0189344095
0.0187053928
0.0184762619
0.0182470867
0.0180179397
0.0177888936
0.0175600203
0.0173313891
0.0171030659
0.0168751118
0.0166475826
0.0164205285
0.0161939935
0.0159680157
0.015742627
0.0155178537
0.0152937166
0.0150702312
0.0148474085
0.0146252551
0.014403774
0.0141829645
0.0139628234
0.0137433446
0.0135245202
0.0133063402
0.0130887934
0.012871867
0.0126555475
0.0124398204
0.0122246708
0.0120100834
0.0117960423
0.0115825317
0.0113695352
0.0111570357
0.0109450182
0.0107334757
0.0105223841
0.0103117283
0.0101014938
0.00989166662
0.00968223353
0.00947318167
0.00926449861
0.00905617234
0.00884819124
0.0086405441
0.00843321992
0.00822620781
0.0080194971
0.00781307735
0.00760693844
0.00740107057
0.00719546409
0.00699010955
0.00678499774
0.00658011959
0.00637546618
0.00617102883
0.00596679899
0.00576276825
0.00555892837
0.00535527128
0.00515178903
0.00494847383
0.00474531806
0.00454231419
0.00433945481
0.00413673268
0.00393414062
0.00373167155
0.00352931856
0.00332707476
0.00312493338
0.00292288775
0.00272093128
0.00251905743
0.00231725977
0.00211553194
0.00191386762
0.00171226053
0.00151070452
0.00130919339
0.00110772115
0.000906281307
0.00070486934
0.000503473331
0.000302103794
0.000100674695
0.0285113351
0.0285125433
0.0285155214
0.0285202669
0.0285265706
0.0285343441
0.0285435976
0.0285543323
0.0285665123
0.0285800896
0.0285950182
0.0286112505
0.0286287302
0.0286473913
0.0286671604
0.028687957
0.0287096927
0.0287322701
0.028755581
0.0287795012
0.0288038974
0.0288286247
0.0288535249
0.0288784265
0.028903145
0.0289274825
0.0289512274
0.0289741532
0.0289960172
0.0290165595
0.0290355041
0.0290525639
0.0290674219
0.0290797593
0.0290892464
0.0290955439
0.0290983031
0.0290971729
0.0290918023
0.0290818434
0.0290669539
0.0290467993
0.029021056
0.0289894137
0.0289515795
0.0289072817
0.0288562738
0.0287983383
0.02873329
0.0286609778
0.0285812873
0.0284941421
0.0283995041
0.0282973748
0.0281877944
0.0280708413
0.0279466307
0.0278153126
0.0276770695
0.0275321134
0.027380683
0.0272230397
0.0270594645
0.026890254
0.0267157166
0.026536169
0.0263519322
0.0261633286
0.0259706786
0.025774298
0.0255744955
0.0253715706
0.0251658119
0.0249574953
0.0247468831
0.0245342228
0.0243197461
0.0241036685
0.0238861856
0.023667487
0.0234477261
0.0232270497
0.0230055841
0.0227834352
0.0225606901
0.0223374172
0.0221136673
0.0218894746
0.0216648589
0.0214398276
0.0212143792
0.020988506
0.0207621981
0.0205354465
0.0203082468
0.0200806017
0.0198525234
0.019624035
0.0193951714
0.0191659787
0.0189365138
0.0187068427
0.0184770385
0.0182471796
0.0180173469
0.017787622
0.0175580853
0.0173288137
0.0170998797
0.01687135
0.016643285
0.016415738
0.0161887552
0.0159623757
0.0157366315
0.0155115484
0.0152871456
0.0150634371
0.0148404315
0.0146181331
0.0143965419
0.0141756549
0.0139554658
0.0137359659
0.0135171442
0.0132989885
0.0130814849
0.0128646185
0.0126483738
0.0124327346
0.0122176844
0.0120032064
0.0117892834
0.0115758982
0.0113630333
0.011150671
0.0109387936
0.0107273899
0.0105164422
0.010305933
0.0100958474
0.00988617081
0.00967688918
0.00946798925
0.00925945816
0.00905128344
0.00884345302
0.00863595514
0.00842877837
0.00822191166
0.00801534436
0.00780906604
0.0076030665
0.00739733582
0.00719186424
0.00698664224
0.00678166056
0.00657691012
0.006372382
0.00616806754
0.00596395824
0.00576004574
0.00555632187
0.0053527786
0.00514940804
0.0049462025
0.00474315439
0.00454025624
0.00433750072
0.00413488064
0.00393238892
0.00373001855
0.00352776272
0.00332561465
0.00312356766
0.00292161519
0.00271975074
0.00251796785
0.00231626021
0.00211462152
0.00191304556
0.00171152613
0.00151005716
0.00130863252
0.00110724631
0.000905892108
0.000704565491
0.000503254647
0.000301970749
0.000100628483
0.0284902121
0.0284914925
0.0284946262
0.0284996123
0.0285062394
0.0285144196
0.0285241665
0.0285354849
0.0285483425
0.0285626943
0.0285784983
0.0285957111
0.0286142802
0.0286341439
0.0286552332
0.0286774722
0.0287007763
0.0287250505
0.028750189
0.0287760751
0.0288025786
0.028829556
0.0288568504
0.028884292
0.0289116968
0.0289388663
0.0289655859
0.0289916236
0.0290167292
0.0290406329
0.0290630402
0.0290836799
0.0291022004
0.0291182666
0.0291315259
0.0291416144
0.0291481618
0.0291507912
0.0291491235
0.0291427816
0.0291313929
0.0291145923
0.0290920249
0.0290633496
0.0290282431
0.0289864051
0.0289375629
0.0288814754
0.0288179376
0.0287467824
0.0286678838
0.0285811579
0.0284865646
0.0283841072
0.0282738331
0.0281558322
0.0280302354
0.0278972125
0.0277569692
0.0276097438
0.0274558036
0.0272954407
0.0271289675
0.026956713
0.0267790178
0.0265962303
0.0264087025
0.026216786
0.0260208292
0.0258211732
0.0256181501
0.0254120804
0.0252032711
0.0249920144
0.0247785867
0.0245632472
0.0243462378
0.0241277823
0.0239080866
0.0236873385
0.0234656981
0.0232433135
0.0230203105
0.0227967914
0.0225728372
0.0223485074
0.022123841
0.0218988575
0.0216735592
0.0214479343
0.02122196
0.020995607
0.0207688438
0.0205416415
0.0203139779
0.0200858411
0.0198572325
0.0196281685
0.0193986816
0.0191688192
0.0189386432
0.0187082269
0.0184776534
0.0182470116
0.018016394
0.0177858934
0.0175556005
0.0173256018
0.0170959778
0.0168668017
0.016638139
0.0164100463
0.0161825719
0.0159557557
0.0157296296
0.0155042178
0.0152795378
0.015055601
0.0148324131
0.0146099751
0.0143882839
0.0141673328
0.0139471123
0.0137276104
0.0135088133
0.0132907055
0.0130732706
0.012856491
0.0126403487
0.0124248252
0.012209902
0.0119955603
0.0117817818
0.0115685476
0.0113558369
0.0111436352
0.0109319234
0.0107206855
0.010509905
0.0102995653
0.0100896504
0.00988014506
0.00967103491
0.00946230605
0.00925394511
0.00904593921
0.008838276
0.00863094353
0.00842393023
0.00821722485
0.00801081648
0.00780469449
0.00759884858
0.00739326876
0.00718794527
0.00698286859
0.00677802947
0.00657341884
0.00636902783
0.00616484779
0.00596087028
0.00575708699
0.0055534898
0.00535007077
0.00514682209
0.00494373612
0.00474080541
0.00453802256
0.00433538034
0.00413287168
0.00393048958
0.00372822714
0.00352607761
0.00332403429
0.0031220906
0.00292024006
0.00271847623
0.00251679278
0.00231518345
0.00211364207
0.00191216249
0.00171073862
0.00150936448
0.00130803405
0.00110674151
0.000905480532
0.000704246773
0.000503028492
0.000301836503
0.000100585168
0.0284668946
0.0284682523
0.0284715528
0.0284767966
0.0284837699
0.0284923855
0.0285026605
0.0285146039
0.0285281867
0.0285433681
0.0285601107
0.0285783749
0.0285981131
0.0286192683
0.0286417766
0.028665567
0.0286905604
0.0287166678
0.0287437902
0.0287718133
0.0288006112
0.0288300444
0.0288599591
0.0288901873
0.0289205452
0.0289508335
0.0289808351
0.0290103151
0.0290390189
0.0290666719
0.0290929803
0.0291175954
0.0291402113
0.0291604604
0.0291779625
0.0291923292
0.0292031613
0.0292100504
0.0292125849
0.0292103541
0.0292029505
0.0291899731
0.0291710303
0.0291457445
0.029113757
0.0290747332
0.0290283691
0.0289743958
0.0289125841
0.0288427482
0.0287647477
0.0286784902
0.0285839325
0.0284810806
0.0283699901
0.0282507645
0.0281235538
0.0279885511
0.02784599
0.0276961397
0.0275393017
0.027375804
0.0272059968
0.0270302469
0.0268489332
0.0266624412
0.0264711587
0.0262754711
0.0260757582
0.0258723902
0.0256657251
0.0254561066
0.0252438621
0.0250293015
0.0248127164
0.0245943793
0.0243745435
0.0241534432
0.0239312932
0.0237082732
0.0234845582
0.0232602995
0.0230356224
0.0228106242
0.0225853793
0.0223599376
0.0221343244
0.021908542
0.0216825717
0.0214563776
0.0212299108
0.0210031147
0.0207759309
0.0205483051
0.0203201926
0.0200915636
0.0198624063
0.0196327296
0.0194025637
0.019171959
0.0189409848
0.0187097252
0.0184782763
0.0182467416
0.0180152284
0.0177838438
0.0175526916
0.0173218697
0.0170914683
0.0168615682
0.0166322402
0.0164035447
0.0161755319
0.0159482418
0.0157217054
0.0154959451
0.0152709755
0.0150468046
0.0148234344
0.0146008619
0.0143790798
0.0141580775
0.0139378413