/*--------------------------------*- C++ -*----------------------------------*\
| =========                 |                                                 |
| \\      /  F ield         | OpenFOAM: The Open Source CFD Toolbox           |
|  \\    /   O peration     | Version:  v2012                                 |
|   \\  /    A nd           | Website:  www.openfoam.com                      |
|    \\/     M anipulation  |                                                 |
\*---------------------------------------------------------------------------*/
FoamFile
{
    version     2.0;
    format      ascii;
    class       surfaceScalarField;
    location    "2.24";
    object      phi;
}
// * * * * * * * * * * * * * * * * * * * * * * * * * * * * * * * * * * * * * //

dimensions      [0 3 -1 0 0 0 0];
oriented        oriented;


internalField   nonuniform List<scalar> 
56481
(
6.66599796e-07
1.36554926e-10
6.66440404e-07
3.63990847e-10
6.66213793e-07
5.37729718e-10
6.65947198e-07
6.38625979e-10
6.6566794e-07
6.57849387e-10
6.65400275e-07
6.01947122e-10
6.65165062e-07
4.83059495e-10
6.64981926e-07
3.09714851e-10
6.64867833e-07
8.45218641e-11
6.64795069e-07
-1.64637312e-10
6.64775137e-07
-4.1707922e-10
6.64808496e-07
-6.29497631e-10
6.64881606e-07
-7.58544025e-10
6.64970969e-07
-7.72326597e-10
6.65049593e-07
-6.59417345e-10
6.65094143e-07
-4.32067122e-10
6.650937e-07
-1.22930031e-10
6.65013365e-07
2.36450073e-10
6.64845688e-07
5.9302318e-10
6.64604577e-07
9.15054508e-10
6.64307314e-07
1.17779523e-09
6.63973303e-07
1.36260002e-09
6.63621848e-07
1.46123296e-09
6.63271305e-07
1.47399903e-09
6.62938466e-07
1.40828031e-09
6.62637942e-07
1.27767253e-09
6.62381272e-07
1.10140499e-09
6.62175478e-07
9.04156735e-10
6.62021211e-07
7.15672296e-10
6.61911089e-07
5.69014456e-10
6.61829156e-07
4.96672855e-10
6.6175247e-07
5.24746757e-10
6.61654852e-07
6.6659872e-10
6.61511329e-07
9.18205911e-10
6.61302319e-07
1.25728888e-09
6.61016923e-07
1.64726213e-09
6.60654384e-07
2.04527737e-09
6.60223264e-07
2.41208142e-09
6.59738343e-07
2.72059254e-09
6.5921631e-07
2.96054222e-09
6.586717e-07
3.13789774e-09
6.58114255e-07
3.26967159e-09
6.57548247e-07
3.37642521e-09
6.56973545e-07
3.47541322e-09
6.56387646e-07
3.57662157e-09
6.55787718e-07
3.68238903e-09
6.55171962e-07
3.78971428e-09
6.54540071e-07
3.89351037e-09
6.53892995e-07
3.98921798e-09
6.53232406e-07
4.07400136e-09
6.52560222e-07
4.14665248e-09
6.5187836e-07
4.20683804e-09
6.51188706e-07
4.25434437e-09
6.50493207e-07
4.28867405e-09
6.49793964e-07
4.3090119e-09
6.49093288e-07
4.314391e-09
6.48393694e-07
4.30387616e-09
6.47697882e-07
4.2766726e-09
6.47008693e-07
4.2321524e-09
6.46329085e-07
4.1698391e-09
6.45662107e-07
4.089387e-09
6.45010874e-07
3.99057264e-09
6.44378538e-07
3.87329592e-09
6.43768261e-07
3.73758724e-09
6.43183181e-07
3.58361073e-09
6.42626386e-07
3.41166876e-09
6.4210089e-07
3.22220558e-09
6.4160963e-07
3.01580251e-09
6.41155466e-07
2.79318145e-09
6.40741201e-07
2.55519762e-09
6.40369597e-07
2.30282106e-09
6.4004339e-07
2.03711966e-09
6.39765295e-07
1.75922583e-09
6.3953798e-07
1.4702885e-09
6.39363967e-07
1.17138126e-09
6.39245861e-07
8.63293938e-10
6.39184194e-07
5.48421784e-10
6.3917707e-07
2.29186891e-10
6.39228387e-07
-9.46314793e-11
6.39344241e-07
-4.20144943e-10
6.39524054e-07
-7.45827438e-10
6.39767424e-07
-1.07105978e-09
6.40073673e-07
-1.3938662e-09
6.40442002e-07
-1.71248147e-09
6.40871211e-07
-2.02501939e-09
6.41359585e-07
-2.32940336e-09
6.419049e-07
-2.62349035e-09
6.4250443e-07
-2.90511158e-09
6.4315496e-07
-3.1720768e-09
6.43852835e-07
-3.42222205e-09
6.44594013e-07
-3.65346838e-09
6.4537412e-07
-3.86389187e-09
6.46188491e-07
-4.05178277e-09
6.47032213e-07
-4.21570871e-09
6.47900174e-07
-4.3545587e-09
6.4878711e-07
-4.46756357e-09
6.4968767e-07
-4.55431498e-09
6.50596491e-07
-4.61476654e-09
6.51508273e-07
-4.64921804e-09
6.52417855e-07
-4.65830616e-09
6.53320292e-07
-4.64298112e-09
6.54210914e-07
-4.60446929e-09
6.55085382e-07
-4.54424535e-09
6.55939731e-07
-4.46398691e-09
6.567704e-07
-4.36553544e-09
6.57574258e-07
-4.25084267e-09
6.58348611e-07
-4.12193714e-09
6.59091206e-07
-3.98087003e-09
6.59800227e-07
-3.82968362e-09
6.60474277e-07
-3.67037161e-09
6.61112363e-07
-3.50485261e-09
6.61713864e-07
-3.33493873e-09
6.62278508e-07
-3.1623215e-09
6.6280633e-07
-2.9885561e-09
6.6329764e-07
-2.81504527e-09
6.63752978e-07
-2.64303538e-09
6.64173057e-07
-2.47360492e-09
6.64558791e-07
-2.30763755e-09
6.64911384e-07
-2.14583248e-09
6.65232218e-07
-1.98877303e-09
6.65522778e-07
-1.83694664e-09
6.65784606e-07
-1.69075267e-09
6.66019278e-07
-1.55050227e-09
6.66228376e-07
-1.41642439e-09
6.66413477e-07
-1.28866943e-09
6.66576138e-07
-1.16731915e-09
6.6671788e-07
-1.05239372e-09
6.66840174e-07
-9.43855402e-10
6.66944422e-07
-8.4161361e-10
6.67031965e-07
-7.45559241e-10
6.67104091e-07
-6.55548993e-10
6.67162015e-07
-5.71394093e-10
6.67206885e-07
-4.92872268e-10
6.67239789e-07
-4.19732598e-10
6.67261768e-07
-3.51700746e-10
6.67273841e-07
-2.88485293e-10
6.67277023e-07
-2.29787409e-10
6.67272353e-07
-1.7531187e-10
6.67260915e-07
-1.24772202e-10
6.67243995e-07
-7.79919374e-11
6.67223537e-07
-3.52820524e-11
6.67202937e-07
1.66273133e-12
6.67175755e-07
3.8358801e-11
6.67141819e-07
6.8626119e-11
6.67102708e-07
9.49851491e-11
6.67059373e-07
1.18530227e-10
6.67012657e-07
1.39829087e-10
6.66963342e-07
1.59100825e-10
6.6691209e-07
1.76509178e-10
6.66859426e-07
1.92196884e-10
6.66805753e-07
2.06266481e-10
6.66751373e-07
2.18785804e-10
6.66696505e-07
2.29807082e-10
6.66641314e-07
2.39386938e-10
6.66585931e-07
2.47593576e-10
6.66530471e-07
2.54505412e-10
6.66475043e-07
2.60209225e-10
6.66419755e-07
2.64797227e-10
6.66364717e-07
2.68362971e-10
6.66310038e-07
2.70998299e-10
6.66255823e-07
2.7279038e-10
6.66202177e-07
2.73820176e-10
6.66149197e-07
2.74160708e-10
6.66096971e-07
2.73877157e-10
6.66045577e-07
2.73026362e-10
6.65995083e-07
2.71658112e-10
6.65945548e-07
2.69815921e-10
6.65897019e-07
2.67538479e-10
6.65849534e-07
2.64860372e-10
6.65803123e-07
2.61813576e-10
6.65757809e-07
2.58428321e-10
6.6571361e-07
2.54733304e-10
6.6567054e-07
2.50756475e-10
6.65628612e-07
2.46525133e-10
6.65587835e-07
2.42065449e-10
6.65548219e-07
2.37402612e-10
6.65509775e-07
2.32560532e-10
6.65472513e-07
2.27561209e-10
6.65436442e-07
2.22424894e-10
6.65401573e-07
2.17169673e-10
6.65367916e-07
2.11811645e-10
6.65335482e-07
2.06364458e-10
6.6530428e-07
2.00839836e-10
6.65274323e-07
1.95246422e-10
6.65245623e-07
1.89593198e-10
6.65218201e-07
1.83870792e-10
6.65192081e-07
1.78126478e-10
6.65167327e-07
1.72111492e-10
6.65143959e-07
1.66820167e-10
1.57258661e-10
6.66616314e-07
1.86840686e-10
6.66463788e-07
5.16517321e-10
6.66232962e-07
7.68555784e-10
6.65951571e-07
9.20016393e-10
6.65649293e-07
9.60127968e-10
6.65353605e-07
8.97634724e-10
6.65087575e-07
7.49089935e-10
6.64869864e-07
5.2742537e-10
6.64710993e-07
2.43392593e-10
6.64635346e-07
-8.89899859e-11
6.6464532e-07
-4.27053567e-10
6.64730388e-07
-7.14565144e-10
6.64871218e-07
-8.99374388e-10
6.65038034e-07
-9.39142168e-10
6.65195132e-07
-8.16515595e-10
6.65305683e-07
-5.42618016e-10
6.65333208e-07
-1.50454549e-10
6.65270836e-07
2.98821256e-10
6.65108957e-07
7.549029e-10
6.64854313e-07
1.16969833e-09
6.64525601e-07
1.50650667e-09
6.64146841e-07
1.74136097e-09
6.63744326e-07
1.863747e-09
6.63343566e-07
1.87475954e-09
6.62967629e-07
1.78421764e-09
6.6263618e-07
1.6091207e-09
6.62364446e-07
1.37313937e-09
6.62161723e-07
1.10687988e-09
6.62029483e-07
8.4791243e-10
6.61959618e-07
6.38879344e-10
6.61933773e-07
5.22517643e-10
6.61924529e-07
5.33990805e-10
6.61898647e-07
6.9248125e-10
6.61822266e-07
9.9458631e-10
6.61667128e-07
1.41242666e-09
6.61416037e-07
1.89835323e-09
6.6106584e-07
2.39547462e-09
6.60626926e-07
2.85099601e-09
6.60119332e-07
3.22818618e-09
6.59566747e-07
3.51312705e-09
6.58990402e-07
3.71424309e-09
6.5840476e-07
3.85531295e-09
6.57816087e-07
3.96509861e-09
6.57223774e-07
4.06772601e-09
6.56623334e-07
4.17706166e-09
6.56009579e-07
4.29614463e-09
6.55378834e-07
4.42045887e-09
6.54729756e-07
4.54258816e-09
6.54063004e-07
4.65596996e-09
6.53380392e-07
4.75661312e-09
6.52684101e-07
4.84294361e-09
6.51976248e-07
4.91469143e-09
6.51258821e-07
4.97177148e-09
6.50533816e-07
5.01367926e-09
6.49803397e-07
5.03943097e-09
6.49069986e-07
5.04780114e-09
6.48336273e-07
5.03758937e-09
6.47605168e-07
5.00777795e-09
6.46879751e-07
4.95756907e-09
6.4616323e-07
4.88635998e-09
6.45458906e-07
4.79371097e-09
6.44770148e-07
4.67933144e-09
6.44100363e-07
4.54308082e-09
6.43452973e-07
4.38497705e-09
6.42831385e-07
4.20519859e-09
6.42238968e-07
4.00408547e-09
6.41679036e-07
3.78213798e-09
6.41154832e-07
3.54000597e-09
6.40669524e-07
3.27849001e-09
6.40226189e-07
2.99853224e-09
6.39827813e-07
2.70119773e-09
6.39477271e-07
2.38766172e-09
6.39177311e-07
2.05918554e-09
6.38930499e-07
1.71710034e-09
6.3873907e-07
1.36281027e-09
6.38604587e-07
9.97776726e-10
6.38529456e-07
6.23552907e-10
6.38517739e-07
2.40904039e-10
6.38569776e-07
-1.46668131e-10
6.38686614e-07
-5.36983449e-10
6.38869479e-07
-9.28691997e-10
6.39118746e-07
-1.3203271e-09
6.39434527e-07
-1.70964665e-09
6.3981627e-07
-2.09422444e-09
6.40262878e-07
-2.47162809e-09
6.40772743e-07
-2.83926796e-09
6.41343686e-07
-3.19443303e-09
6.41972948e-07
-3.53437379e-09
6.4265721e-07
-3.85633908e-09
6.43392625e-07
-4.15763699e-09
6.44174858e-07
-4.43570185e-09
6.44999139e-07
-4.68817193e-09
6.45860308e-07
-4.91295201e-09
6.46752882e-07
-5.10828334e-09
6.4767112e-07
-5.27279623e-09
6.48609096e-07
-5.40553932e-09
6.4956079e-07
-5.5060093e-09
6.50520182e-07
-5.57415851e-09
6.51481343e-07
-5.61037939e-09
6.52438531e-07
-5.61549357e-09
6.53386271e-07
-5.59072121e-09
6.54319433e-07
-5.53763171e-09
6.55233293e-07
-5.4581051e-09
6.56123578e-07
-5.35427222e-09
6.56986506e-07
-5.22846279e-09
6.578188e-07
-5.08313677e-09
6.58617703e-07
-4.92084044e-09
6.59380972e-07
-4.7441386e-09
6.60106862e-07
-4.55557435e-09
6.60794111e-07
-4.3576199e-09
6.61441902e-07
-4.15264344e-09
6.62049834e-07
-3.94287088e-09
6.62617881e-07
-3.73036861e-09
6.6314635e-07
-3.51702499e-09
6.63635837e-07
-3.30453237e-09
6.64087187e-07
-3.09438514e-09
6.64501456e-07
-2.88787443e-09
6.64879901e-07
-2.68608236e-09
6.65223965e-07
-2.48989681e-09
6.65535231e-07
-2.30003837e-09
6.65815366e-07
-2.11708157e-09
6.66066088e-07
-1.94147496e-09
6.66289135e-07
-1.77354974e-09
6.66486243e-07
-1.61353189e-09
6.66659123e-07
-1.46154945e-09
6.6680945e-07
-1.3176459e-09
6.66938846e-07
-1.18179041e-09
6.67048878e-07
-1.05388674e-09
6.67141051e-07
-9.33786994e-10
6.67216797e-07
-8.21305522e-10
6.67277468e-07
-7.16219554e-10
6.67324345e-07
-6.18271678e-10
6.67358649e-07
-5.2717553e-10
6.67381537e-07
-4.42620928e-10
6.67394118e-07
-3.64281509e-10
6.67397457e-07
-2.91824371e-10
6.67392599e-07
-2.24929052e-10
6.6738063e-07
-1.63343488e-10
6.67362714e-07
-1.06855953e-10
6.67339642e-07
-5.49197604e-11
6.67310359e-07
-5.99879166e-12
6.67275321e-07
3.67001672e-11
6.67238473e-07
7.52069194e-11
6.67197735e-07
1.0936409e-10
6.67153255e-07
1.39464806e-10
6.67105575e-07
1.66210938e-10
6.67055244e-07
1.90159976e-10
6.67002695e-07
2.11650078e-10
6.66948319e-07
2.30884542e-10
6.66892507e-07
2.48009132e-10
6.66835622e-07
2.63151354e-10
6.66777987e-07
2.76421339e-10
6.66719879e-07
2.87914659e-10
6.66661536e-07
2.97729468e-10
6.66603156e-07
3.05973906e-10
6.665449e-07
3.12761222e-10
6.66486904e-07
3.18205015e-10
6.66429285e-07
3.22416454e-10
6.66372146e-07
3.25502269e-10
6.6631558e-07
3.27563977e-10
6.66259674e-07
3.28696626e-10
6.66204506e-07
3.28988178e-10
6.66150149e-07
3.28517803e-10
6.66096669e-07
3.2735684e-10
6.66044127e-07
3.25568632e-10
6.65992575e-07
3.23209871e-10
6.6594206e-07
3.20331035e-10
6.65892621e-07
3.16977621e-10
6.65844291e-07
3.13190557e-10
6.65797097e-07
3.09007609e-10
6.65751061e-07
3.04464123e-10
6.65706201e-07
2.99593102e-10
6.65662532e-07
2.94426023e-10
6.65620064e-07
2.88992993e-10
6.65578807e-07
2.83322403e-10
6.65538768e-07
2.77441084e-10
6.65499955e-07
2.71374188e-10
6.65462371e-07
2.6514457e-10
6.65426023e-07
2.58772999e-10
6.65390915e-07
2.52277763e-10
6.65357052e-07
2.45674959e-10
6.65324438e-07
2.38977972e-10
6.6529308e-07
2.32198034e-10
6.65262984e-07
2.25342855e-10
6.65234156e-07
2.18420588e-10
6.65206607e-07
2.11420201e-10
6.65180337e-07
2.04396761e-10
6.65155357e-07
1.97090892e-10
6.65131457e-07
1.90720095e-10
1.795846e-10
6.66608496e-07
2.4504438e-10
6.66454159e-07
6.70854202e-10
6.66224923e-07
9.97792374e-10
6.65947808e-07
1.19713111e-09
6.65651306e-07
1.25662984e-09
6.65361368e-07
1.18757259e-09
6.65100189e-07
1.01026962e-09
6.64886899e-07
7.40714807e-10
6.64738025e-07
3.92266813e-10
6.64661969e-07
-1.29339723e-11
6.64662597e-07
-4.27681516e-10
6.6473678e-07
-7.88748446e-10
6.64865613e-07
-1.02820701e-09
6.65019255e-07
-1.09278386e-09
6.65162085e-07
-9.59345907e-10
6.6525984e-07
-6.40373085e-10
6.65288633e-07
-1.79247559e-10
6.65229173e-07
3.58281032e-10
6.65076291e-07
9.07785459e-10
6.64837352e-07
1.40863717e-09
6.64528227e-07
1.81563169e-09
6.64169939e-07
2.09964875e-09
6.63786179e-07
2.24750758e-09
6.63400876e-07
2.26006234e-09
6.63036281e-07
2.14881188e-09
6.62711813e-07
1.93358914e-09
6.62442949e-07
1.64200312e-09
6.62239676e-07
1.31015324e-09
6.62104509e-07
9.83079713e-10
6.62030584e-07
7.12804506e-10
6.6200065e-07
5.52451001e-10
6.61988017e-07
5.46623785e-10
6.61960224e-07
7.20274405e-10
6.61884579e-07
1.07023115e-09
6.61733884e-07
1.56312207e-09
6.61491198e-07
2.14103881e-09
6.61152508e-07
2.73416486e-09
6.60726422e-07
3.27708197e-09
6.60230853e-07
3.72375499e-09
6.59687671e-07
4.05630961e-09
6.59117052e-07
4.28486149e-09
6.58533305e-07
4.43906003e-09
6.57943244e-07
4.55515957e-09
6.5734715e-07
4.66381987e-09
6.56741384e-07
4.78282787e-09
6.56121319e-07
4.91620956e-09
6.55483492e-07
5.05828638e-09
6.54826496e-07
5.19958427e-09
6.54150802e-07
5.33166358e-09
6.53458042e-07
5.44937343e-09
6.52750288e-07
5.55069729e-09
6.5202964e-07
5.63533944e-09
6.51298134e-07
5.70327739e-09
6.5055785e-07
5.75396373e-09
6.4981105e-07
5.78623044e-09
6.49060267e-07
5.79858473e-09
6.48308306e-07
5.78955042e-09
6.47558211e-07
5.75787254e-09
6.46813213e-07
5.70256723e-09
6.46076682e-07
5.62289053e-09
6.45352096e-07
5.51829695e-09
6.44643006e-07
5.3884213e-09
6.43953007e-07
5.23308016e-09
6.43285701e-07
5.05228303e-09
6.42644665e-07
4.84623519e-09
6.42033413e-07
4.61533675e-09
6.41455376e-07
4.36017531e-09
6.40913878e-07
4.08150367e-09
6.40412139e-07
3.78022976e-09
6.39953273e-07
3.45739779e-09
6.39540304e-07
3.11416628e-09
6.39176166e-07
2.75180023e-09
6.38863692e-07
2.37165953e-09
6.386056e-07
1.9751924e-09
6.38404481e-07
1.56392895e-09
6.38262769e-07
1.13948859e-09
6.38182558e-07
7.03764162e-10
6.38164274e-07
2.59188144e-10
6.38210706e-07
-1.93100408e-10
6.38324011e-07
-6.50288463e-10
6.38505568e-07
-1.11024885e-09
6.38755822e-07
-1.57058077e-09
6.39074834e-07
-2.02865901e-09
6.39462251e-07
-2.48164165e-09
6.39917141e-07
-2.9265174e-09
6.40437982e-07
-3.36010895e-09
6.41022658e-07
-3.7791095e-09
6.41668443e-07
-4.1801588e-09
6.42371999e-07
-4.55989463e-09
6.43129391e-07
-4.91502956e-09
6.4393612e-07
-5.24243059e-09
6.4478716e-07
-5.53921214e-09
6.4567702e-07
-5.80281191e-09
6.46599814e-07
-6.03107684e-09
6.47549347e-07
-6.22232968e-09
6.48519216e-07
-6.37540842e-09
6.49502913e-07
-6.48970579e-09
6.50493935e-07
-6.56518062e-09
6.51485895e-07
-6.60233998e-09
6.52472626e-07
-6.60222454e-09
6.53448274e-07
-6.56636873e-09
6.5440738e-07
-6.49673774e-09
6.55344951e-07
-6.39567613e-09
6.5625651e-07
-6.26583115e-09
6.57138133e-07
-6.11008553e-09
6.57986467e-07
-5.93147104e-09
6.58798739e-07
-5.73311204e-09
6.59572742e-07
-5.51814176e-09
6.6030682e-07
-5.28965218e-09
6.60999834e-07
-5.05063427e-09
6.61651129e-07
-4.80393821e-09
6.62260486e-07
-4.5522284e-09
6.62828082e-07
-4.29796405e-09
6.63354436e-07
-4.0433789e-09
6.63840366e-07
-3.79046268e-09
6.64286943e-07
-3.54096236e-09
6.6469545e-07
-3.29638149e-09
6.65067349e-07
-3.05798081e-09
6.65404249e-07
-2.82679688e-09
6.65707872e-07
-2.60366194e-09
6.65980013e-07
-2.3892225e-09
6.66222503e-07
-2.18396416e-09
6.66437179e-07
-1.98822625e-09
6.66625867e-07
-1.80222006e-09
6.66790359e-07
-1.62604117e-09
6.66932401e-07
-1.45968792e-09
6.67053686e-07
-1.30307507e-09
6.67155843e-07
-1.15604439e-09
6.67240435e-07
-1.01837825e-09
6.67308939e-07
-8.89809545e-10
6.67362747e-07
-7.7002823e-10
6.67403166e-07
-6.58690754e-10
6.67431419e-07
-5.55428392e-10
6.67448654e-07
-4.59855249e-10
6.6745595e-07
-3.71578465e-10
6.67454334e-07
-2.90208157e-10
6.67444773e-07
-2.15367435e-10
6.67428118e-07
-1.4668917e-10
6.67405004e-07
-8.37414176e-11
6.67376051e-07
-2.59672823e-11
6.67343345e-07
2.67076382e-11
6.67306438e-07
7.36067891e-11
6.67265734e-07
1.15911339e-10
6.67221374e-07
1.53724167e-10
6.6717351e-07
1.87328882e-10
6.67122568e-07
2.17152586e-10
6.6706915e-07
2.4357839e-10
6.67013863e-07
2.66937042e-10
6.66957218e-07
2.87529213e-10
6.66899603e-07
3.05624376e-10
6.66841311e-07
3.21442935e-10
6.66782575e-07
3.35157542e-10
6.66723578e-07
3.46911197e-10
6.66664473e-07
3.56834722e-10
6.66605394e-07
3.65053564e-10
6.66546465e-07
3.71689726e-10
6.66487807e-07
3.76863344e-10
6.66429532e-07
3.80691504e-10
6.66371747e-07
3.83286542e-10
6.66314557e-07
3.84754853e-10
6.66258056e-07
3.85197318e-10
6.66202334e-07
3.84710144e-10
6.6614747e-07
3.8338123e-10
6.66093536e-07
3.81291369e-10
6.66040591e-07
3.78513261e-10
6.65988689e-07
3.75112616e-10
6.65937871e-07
3.71148515e-10
6.65888174e-07
3.66674602e-10
6.65839626e-07
3.61739162e-10
6.65792247e-07
3.56386353e-10
6.65746054e-07
3.50656792e-10
6.6570106e-07
3.44587521e-10
6.65657273e-07
3.38212995e-10
6.656147e-07
3.31565369e-10
6.65573349e-07
3.24674148e-10
6.65533223e-07
3.17566766e-10
6.65494329e-07
3.10268612e-10
6.6545667e-07
3.02802605e-10
6.65420254e-07
2.95189729e-10
6.65385083e-07
2.87448617e-10
6.65351162e-07
2.79595752e-10
6.65318495e-07
2.71644807e-10
6.65287086e-07
2.63607252e-10
6.65256938e-07
2.55491125e-10
6.65228054e-07
2.47304797e-10
6.65200436e-07
2.39037809e-10
6.65174089e-07
2.30744162e-10
6.65149039e-07
2.22140574e-10
6.65125269e-07
2.1449046e-10
2.01294808e-10
6.66611882e-07
2.99862837e-10
6.66457633e-07
8.25102807e-10
6.66223765e-07
1.23166061e-09
6.65936246e-07
1.48465001e-09
6.65624883e-07
1.56799289e-09
6.65318284e-07
1.49417102e-09
6.6504146e-07
1.28709361e-09
6.64816322e-07
9.65852671e-10
6.64661841e-07
5.46748767e-10
6.64592604e-07
5.63028716e-11
6.64609651e-07
-4.44728525e-10
6.64710451e-07
-8.89548705e-10
6.64874289e-07
-1.1920455e-09
6.65068124e-07
-1.28661829e-09
6.6525229e-07
-1.14351155e-09
6.65388314e-07
-7.76397183e-10
6.65445998e-07
-2.36931653e-10
6.65401583e-07
4.02695754e-10
6.6525091e-07
1.05845816e-09
6.65001354e-07
1.65819303e-09
6.64671726e-07
2.14526057e-09
6.64287209e-07
2.48416564e-09
6.63875394e-07
2.65932198e-09
6.63463916e-07
2.67154102e-09
6.63078539e-07
2.53418842e-09
6.62741621e-07
2.27050769e-09
6.62470614e-07
1.91300977e-09
6.62276293e-07
1.50447368e-09
6.62160708e-07
1.09866473e-09
6.62115407e-07
7.58106339e-10
6.62120883e-07
5.46974752e-10
6.62148039e-07
5.19467971e-10
6.62161458e-07
7.06855602e-10
6.62124503e-07
1.10718602e-09
6.62005934e-07
1.68169104e-09
6.61785929e-07
2.36104306e-09
6.61459468e-07
3.06062611e-09
6.61036002e-07
3.70054867e-09
6.60535578e-07
4.22417823e-09
6.59982723e-07
4.6091653e-09
6.59400061e-07
4.86752361e-09
6.58803649e-07
5.03547191e-09
6.58201172e-07
5.15763614e-09
6.57593e-07
5.27199214e-09
6.56975064e-07
5.40076334e-09
6.56342101e-07
5.5491732e-09
6.55690038e-07
5.71034957e-09
6.55017021e-07
5.87260043e-09
6.5432326e-07
6.02542529e-09
6.53610263e-07
6.16236994e-09
6.52880072e-07
6.28088817e-09
6.52134799e-07
6.38061298e-09
6.5137652e-07
6.46155618e-09
6.50607385e-07
6.52309879e-09
6.49829762e-07
6.5638532e-09
6.49046327e-07
6.5820195e-09
6.48260071e-07
6.57580717e-09
6.47474252e-07
6.54369146e-09
6.4669234e-07
6.48447858e-09
6.45917962e-07
6.39726861e-09
6.45154855e-07
6.28140407e-09
6.44406831e-07
6.13644559e-09
6.4367774e-07
5.96217096e-09
6.42971439e-07
5.7585843e-09
6.4229176e-07
5.52591398e-09
6.41642491e-07
5.26460577e-09
6.41027355e-07
4.97531094e-09
6.40449997e-07
4.65886227e-09
6.39913959e-07
4.31626783e-09
6.39422662e-07
3.94869451e-09
6.38979385e-07
3.55744349e-09
6.38587248e-07
3.14393753e-09
6.38249205e-07
2.70970164e-09
6.37968051e-07
2.25634728e-09
6.377464e-07
1.78558004e-09
6.3758668e-07
1.29920856e-09
6.37491295e-07
7.99148835e-10
6.37462977e-07
2.87505878e-10
6.37503347e-07
-2.33470397e-10
6.37614079e-07
-7.61020224e-10
6.37796395e-07
-1.29256493e-09
6.38051211e-07
-1.82539648e-09
6.38378982e-07
-2.35643073e-09
6.38779628e-07
-2.88228763e-09
6.39252468e-07
-3.39935695e-09
6.39796175e-07
-3.90381587e-09
6.4040873e-07
-4.39166457e-09
6.41087385e-07
-4.85881342e-09
6.41828649e-07
-5.30115908e-09
6.42628307e-07
-5.71468716e-09
6.43481449e-07
-6.09557261e-09
6.44382531e-07
-6.44029436e-09
6.45325448e-07
-6.74572898e-09
6.46303626e-07
-7.00925463e-09
6.47310128e-07
-7.22883228e-09
6.48337776e-07
-7.40305585e-09
6.49379272e-07
-7.5312022e-09
6.50427339e-07
-7.61324708e-09
6.51474843e-07
-7.64984477e-09
6.52514927e-07
-7.64230842e-09
6.53541117e-07
-7.59255831e-09
6.5454742e-07
-7.50304128e-09
6.55528407e-07
-7.37666223e-09
6.56479262e-07
-7.21668617e-09
6.57395827e-07
-7.02665136e-09
6.58274618e-07
-6.81026144e-09
6.59112819e-07
-6.57131308e-09
6.59908271e-07
-6.31359397e-09
6.6065944e-07
-6.04082091e-09
6.61365374e-07
-5.75656838e-09
6.62025657e-07
-5.46422154e-09
6.62640354e-07
-5.1669247e-09
6.6320995e-07
-4.86755999e-09
6.63735297e-07
-4.5687264e-09
6.64217556e-07
-4.27272171e-09
6.64658142e-07
-3.98154786e-09
6.65058675e-07
-3.69691484e-09
6.6542094e-07
-3.42024587e-09
6.65746844e-07
-3.15270074e-09
6.66038379e-07
-2.8951967e-09
6.66297584e-07
-2.64842801e-09
6.66526515e-07
-2.41289539e-09
6.66727215e-07
-2.18892551e-09
6.66901689e-07
-1.97669434e-09
6.67051891e-07
-1.77624287e-09
6.67179701e-07
-1.58749866e-09
6.67286919e-07
-1.41029259e-09
6.67375248e-07
-1.24437366e-09
6.67446298e-07
-1.08942837e-09
6.67501584e-07
-9.45095237e-10
6.67542531e-07
-8.10974939e-10
6.6757048e-07
-6.86640496e-10
6.67586696e-07
-5.71643482e-10
6.67592359e-07
-4.65519101e-10
6.67588574e-07
-3.67793025e-10
6.67576352e-07
-2.7798634e-10
6.6755661e-07
-1.95625735e-10
6.67530218e-07
-1.20296239e-10
6.67498324e-07
-5.18482073e-11
6.67462933e-07
9.42431621e-12
6.67422617e-07
6.70230176e-11
6.67378141e-07
1.18083054e-10
6.67330269e-07
1.63783363e-10
6.67279441e-07
2.04551775e-10
6.67226009e-07
2.40761147e-10
6.67170342e-07
2.72820074e-10
6.67112762e-07
3.01158181e-10
6.67053549e-07
3.26150195e-10
6.66992998e-07
3.48080447e-10
6.66931444e-07
3.67178018e-10
6.66869231e-07
3.83656233e-10
6.66806668e-07
3.97720633e-10
6.66744018e-07
4.09560765e-10
6.66681501e-07
4.19352058e-10
6.66619293e-07
4.27261168e-10
6.66557536e-07
4.33447167e-10
6.66496341e-07
4.38057519e-10
6.66435808e-07
4.4122522e-10
6.66376019e-07
4.43074951e-10
6.6631705e-07
4.43724352e-10
6.66258963e-07
4.4328369e-10
6.66201818e-07
4.41855633e-10
6.66145666e-07
4.39533574e-10
6.66090554e-07
4.36403095e-10
6.66036526e-07
4.32541503e-10
6.65983619e-07
4.2801926e-10
6.65931867e-07
4.22900097e-10
6.658813e-07
4.17242122e-10
6.65831941e-07
4.11097806e-10
6.65783812e-07
4.04515341e-10
6.6573693e-07
3.97539228e-10
6.65691307e-07
3.90210132e-10
6.65646954e-07
3.8256586e-10
6.65603878e-07
3.74641538e-10
6.65562083e-07
3.66469154e-10
6.65521572e-07
3.58078236e-10
6.65482344e-07
3.49495864e-10
6.65444401e-07
3.4074611e-10
6.6540774e-07
3.31850667e-10
6.6537236e-07
3.22828494e-10
6.6533826e-07
3.13696217e-10
6.65305437e-07
3.04467511e-10
6.6527389e-07
2.95153924e-10
6.65243618e-07
2.85763561e-10
6.65214617e-07
2.76305638e-10
6.65186885e-07
2.66769985e-10
6.65160406e-07
2.57222579e-10
6.65135175e-07
2.4737165e-10
6.65110954e-07
2.38711861e-10
2.24083734e-10
6.66611104e-07
3.55359329e-10
6.66455634e-07
9.80571949e-10
6.66220452e-07
1.46684294e-09
6.65932024e-07
1.77307811e-09
6.65619961e-07
1.88005622e-09
6.65312401e-07
1.80173112e-09
6.65034154e-07
1.56534004e-09
6.64806851e-07
1.19315615e-09
6.64648941e-07
7.04658666e-10
6.64572209e-07
1.33034641e-10
6.64591982e-07
-4.645012e-10
6.64695246e-07
-9.92813088e-10
6.64861411e-07
-1.35821081e-09
6.65057902e-07
-1.48310929e-09
6.65245765e-07
-1.3313747e-09
6.65386322e-07
-9.16953885e-10
6.65446923e-07
-2.9753274e-10
6.65411256e-07
4.38362549e-10
6.6527169e-07
1.19802434e-09
6.65035294e-07
1.89458918e-09
6.6471879e-07
2.46176467e-09
6.6434579e-07
2.85716571e-09
6.63943403e-07
3.06170928e-09
6.63539201e-07
3.07574244e-09
6.63159089e-07
2.9143012e-09
6.62825791e-07
2.6038056e-09
6.62557443e-07
2.18135755e-09
6.62365822e-07
1.69609454e-09
6.62254186e-07
1.21030032e-09
6.62215242e-07
7.97050412e-10
6.62230092e-07
5.3212485e-10
6.62269061e-07
4.80499238e-10
6.62295558e-07
6.80358898e-10
6.62272338e-07
1.13040615e-09
6.62167919e-07
1.78610982e-09
6.61962024e-07
2.56693812e-09
6.61648787e-07
3.37386301e-09
6.61236662e-07
4.11267301e-09
6.60744901e-07
4.71594009e-09
6.60197646e-07
5.15641988e-09
6.59617576e-07
5.44759401e-09
6.59021072e-07
5.631976e-09
6.58416204e-07
5.76250354e-09
6.57803619e-07
5.88457772e-09
6.57179346e-07
6.02503596e-09
6.56538068e-07
6.19045112e-09
6.55875582e-07
6.3728353e-09
6.551899e-07
6.55828261e-09
6.54481135e-07
6.73419067e-09
6.53750757e-07
6.89274754e-09
6.53000816e-07
7.03082917e-09
6.5223347e-07
7.14795957e-09
6.51450873e-07
7.24415314e-09
6.50655284e-07
7.31868777e-09
6.49849215e-07
7.36992228e-09
6.4903552e-07
7.39571423e-09
6.48217403e-07
7.39392423e-09
6.47398368e-07
7.36272611e-09
6.46582159e-07
7.30068806e-09
6.45772698e-07
7.20672973e-09
6.44974041e-07
7.08006058e-09
6.44190336e-07
6.92015062e-09
6.43425777e-07
6.72673001e-09
6.42684559e-07
6.49980207e-09
6.41970829e-07
6.23964379e-09
6.41288637e-07
5.94679827e-09
6.40641893e-07
5.62205504e-09
6.40034347e-07
5.26640841e-09
6.39469583e-07
4.88103126e-09
6.38951037e-07
4.46724067e-09
6.38482015e-07
4.02646526e-09
6.38065715e-07
3.56023795e-09
6.37705228e-07
3.0701889e-09
6.3740353e-07
2.55804542e-09
6.37163462e-07
2.02564733e-09
6.36987714e-07
1.47495704e-09
6.36878771e-07
9.08091798e-10
6.36838817e-07
3.27459589e-10
6.36870238e-07
-2.648912e-10
6.36975153e-07
-8.6593556e-10
6.3715533e-07
-1.47274124e-09
6.37411987e-07
-2.08205439e-09
6.37745833e-07
-2.69027657e-09
6.38157022e-07
-3.29347606e-09
6.38645077e-07
-3.88741207e-09
6.39208826e-07
-4.46756456e-09
6.39846341e-07
-5.02917957e-09
6.40554893e-07
-5.56736553e-09
6.41330919e-07
-6.07718518e-09
6.42170015e-07
-6.55378339e-09
6.43066956e-07
-6.99251345e-09
6.44015743e-07
-7.38908184e-09
6.45009685e-07
-7.73967077e-09
6.46041503e-07
-8.04107238e-09
6.47103465e-07
-8.29079467e-09
6.48187538e-07
-8.48712862e-09
6.49285547e-07
-8.62921096e-09
6.50389344e-07
-8.71704367e-09
6.51490967e-07
-8.75146784e-09
6.52582793e-07
-8.73413484e-09
6.53657673e-07
-8.66743806e-09
6.54709041e-07
-8.55440943e-09
6.55731007e-07
-8.39862864e-09
6.56718419e-07
-8.20409831e-09
6.57666901e-07
-7.97513243e-09
6.58572861e-07
-7.71622211e-09
6.59433492e-07
-7.43194361e-09
6.60246733e-07
-7.12683483e-09
6.61011231e-07
-6.80531958e-09
6.61726286e-07
-6.47162346e-09
6.62391784e-07
-6.12971928e-09
6.63008129e-07
-5.78326948e-09
6.63576173e-07
-5.43560415e-09
6.64097147e-07
-5.08970058e-09
6.64572593e-07
-4.74816719e-09
6.65004299e-07
-4.41325419e-09
6.65394247e-07
-4.08686275e-09
6.65744557e-07
-3.77055541e-09
6.66057442e-07
-3.4655857e-09
6.66335168e-07
-3.17292351e-09
6.66580019e-07
-2.89327833e-09
6.66794257e-07
-2.62713404e-09
6.66980105e-07
-2.37477338e-09
6.67139718e-07
-2.13630755e-09
6.67275174e-07
-1.91169812e-09
6.6738846e-07
-1.70078538e-09
6.67481477e-07
-1.50330952e-09
6.6755603e-07
-1.31892651e-09
6.67613827e-07
-1.14722549e-09
6.67656473e-07
-9.87740865e-10
6.67685461e-07
-8.39962904e-10
6.67702173e-07
-7.0335262e-10
6.67707884e-07
-5.77354289e-10
6.67703771e-07
-4.61406679e-10
6.67690934e-07
-3.54955738e-10
6.67670413e-07
-2.57464963e-10
6.67643197e-07
-1.68410256e-10
6.67610055e-07
-8.71543768e-11
6.67570656e-07
-1.24485564e-11
6.67525911e-07
5.41687499e-11
6.67478484e-07
1.14450622e-10
6.67427732e-07
1.68834777e-10
6.67374017e-07
2.17498901e-10
6.67317712e-07
2.60856618e-10
6.67259155e-07
2.99317542e-10
6.67198697e-07
3.33278636e-10
6.6713674e-07
3.6311526e-10
6.67073703e-07
3.89187113e-10
6.67009941e-07
4.11841915e-10
6.66945723e-07
4.31396739e-10
6.66881255e-07
4.48123914e-10
6.6681672e-07
4.62255427e-10
6.66752286e-07
4.73994651e-10
6.66688105e-07
4.83533126e-10
6.66624314e-07
4.91052569e-10
6.66561039e-07
4.96721743e-10
6.66498398e-07
5.00698375e-10
6.66436494e-07
5.03129945e-10
6.66375415e-07
5.04153923e-10
6.66315241e-07
5.0389845e-10
6.66256042e-07
5.02482084e-10
6.66197883e-07
5.00014876e-10
6.66140819e-07
4.96597778e-10
6.66084898e-07
4.92324141e-10
6.6603016e-07
4.87278767e-10
6.6597664e-07
4.81539354e-10
6.65924364e-07
4.751765e-10
6.65873351e-07
4.68254716e-10
6.65823617e-07
4.60832119e-10
6.65775171e-07
4.52961668e-10
6.65728018e-07
4.44691639e-10
6.65682163e-07
4.36065405e-10
6.65637606e-07
4.27122624e-10
6.65594348e-07
4.17899619e-10
6.65552388e-07
4.08429066e-10
6.65511726e-07
3.98740923e-10
6.65472359e-07
3.88862559e-10
6.65434287e-07
3.78818252e-10
6.65397507e-07
3.68629965e-10
6.65362019e-07
3.58316991e-10
6.65327819e-07
3.47896374e-10
6.65294904e-07
3.37382233e-10
6.65263271e-07
3.2678664e-10
6.65232916e-07
3.16118456e-10
6.65203835e-07
3.05387533e-10
6.6517602e-07
2.94584835e-10
6.65149469e-07
2.83773658e-10
6.65124202e-07
2.7263804e-10
6.65100222e-07
2.62691648e-10
2.45965158e-10
6.66610521e-07
4.11538527e-10
6.66452814e-07
1.13827902e-09
6.66213052e-07
1.70660478e-09
6.65917683e-07
2.06844657e-09
6.65597266e-07
2.20047328e-09
6.6528144e-07
2.11755712e-09
6.64996364e-07
1.85041625e-09
6.64765311e-07
1.42420885e-09
6.64609105e-07
8.60865406e-10
6.64544558e-07
1.9758166e-10
6.64571562e-07
-4.91505298e-10
6.64688003e-07
-1.10925389e-09
6.64871905e-07
-1.54211283e-09
6.65088659e-07
-1.69986405e-09
6.65296755e-07
-1.53947025e-09
6.65455524e-07
-1.07572327e-09
6.65532717e-07
-3.74725599e-10
6.6550653e-07
4.64549371e-10