/*--------------------------------*- C++ -*----------------------------------*\
| =========                 |                                                 |
| \\      /  F ield         | OpenFOAM: The Open Source CFD Toolbox           |
|  \\    /   O peration     | Version:  v2012                                 |
|   \\  /    A nd           | Website:  www.openfoam.com                      |
|    \\/     M anipulation  |                                                 |
\*---------------------------------------------------------------------------*/
FoamFile
{
    version     2.0;
    format      ascii;
    class       surfaceScalarField;
    location    "2.24";
    object      phiHbyA;
}
// * * * * * * * * * * * * * * * * * * * * * * * * * * * * * * * * * * * * * //

dimensions      [0 3 -1 0 0 0 0];
oriented        oriented;


internalField   nonuniform List<scalar> 
56481
(
6.66600696e-07
1.32982622e-10
6.66442416e-07
3.60218976e-10
6.6621679e-07
5.33778816e-10
6.65951029e-07
6.34595439e-10
6.65672572e-07
6.53800387e-10
6.65405728e-07
5.9790288e-10
6.65171348e-07
4.79031476e-10
6.64989142e-07
3.05703988e-10
6.64875443e-07
8.04189817e-11
6.64803092e-07
-1.68815722e-10
6.64783746e-07
-4.20923964e-10
6.64817673e-07
-6.33042956e-10
6.64891339e-07
-7.61821567e-10
6.64981196e-07
-7.7539545e-10
6.65060198e-07
-6.62338706e-10
6.6510498e-07
-4.34866993e-10
6.65104677e-07
-1.25555984e-10
6.6502437e-07
2.34099854e-10
6.6485682e-07
5.9104324e-10
6.64615649e-07
9.13342825e-10
6.64318167e-07
1.17633742e-09
6.63983836e-07
1.3614087e-09
6.63631937e-07
1.46029847e-09
6.63280803e-07
1.4733099e-09
6.62947221e-07
1.40783366e-09
6.62645796e-07
1.27747259e-09
6.62388064e-07
1.10146218e-09
6.62181047e-07
9.04485359e-10
6.62025396e-07
7.16286059e-10
6.61913727e-07
5.69921978e-10
6.61830079e-07
4.97874791e-10
6.61751503e-07
5.26235084e-10
6.6165181e-07
6.68357158e-10
6.61506013e-07
9.20213269e-10
6.61294519e-07
1.25952652e-09
6.61006433e-07
1.64971965e-09
6.60641008e-07
2.04795022e-09
6.60206808e-07
2.41496692e-09
6.59718622e-07
2.72368926e-09
6.59193146e-07
2.9638492e-09
6.58644925e-07
3.14141298e-09
6.58083712e-07
3.27339057e-09
6.57513789e-07
3.38033992e-09
6.56935036e-07
3.47951193e-09
6.56344959e-07
3.58088921e-09
6.55740739e-07
3.68680797e-09
6.5512059e-07
3.79426511e-09
6.54484218e-07
3.89817255e-09
6.53832589e-07
3.99397026e-09
6.5316739e-07
4.07882197e-09
6.52490556e-07
4.15151935e-09
6.5180402e-07
4.21172898e-09
6.51109686e-07
4.25923735e-09
6.50409516e-07
4.29354746e-09
6.49705629e-07
4.31384488e-09
6.49000351e-07
4.31916371e-09
6.48296214e-07
4.30857001e-09
6.47595931e-07
4.28127048e-09
6.46902359e-07
4.23663885e-09
6.46218468e-07
4.17420041e-09
6.4554732e-07
4.09361135e-09
6.44892039e-07
3.99465014e-09
6.4425579e-07
3.87721864e-09
6.43641741e-07
3.74134918e-09
6.43053038e-07
3.58720778e-09
6.42492775e-07
3.41509863e-09
6.4196397e-07
3.22546773e-09
6.41469562e-07
3.01889804e-09
6.41012414e-07
2.79611309e-09
6.40595329e-07
2.55796967e-09
6.40221068e-07
2.30543938e-09
6.39892366e-07
2.03959163e-09
6.39611936e-07
1.76156025e-09
6.39382439e-07
1.47249518e-09
6.39206397e-07
1.1734709e-09
6.39086406e-07
8.652788e-10
6.39022998e-07
5.50315731e-10
6.39014232e-07
2.30996268e-10
6.39064157e-07
-9.28639106e-11
6.39178603e-07
-4.18485256e-10
6.39357144e-07
-7.4422315e-10
6.39599366e-07
-1.06948882e-09
6.39904559e-07
-1.39232141e-09
6.40271922e-07
-1.71095063e-09
6.40700251e-07
-2.02349011e-09
6.41187825e-07
-2.32786624e-09
6.41732413e-07
-2.62193785e-09
6.42331282e-07
-2.90353781e-09
6.42981214e-07
-3.17047793e-09
6.43678548e-07
-3.42059641e-09
6.4441924e-07
-3.65181643e-09
6.45198911e-07
-3.86221616e-09
6.46012893e-07
-4.05008784e-09
6.46856272e-07
-4.21400097e-09
6.47723933e-07
-4.35284621e-09
6.4861061e-07
-4.46585577e-09
6.49510952e-07
-4.5526224e-09
6.50419595e-07
-4.61310044e-09
6.51331236e-07
-4.64759008e-09
6.52240716e-07
-4.65672804e-09
6.53143088e-07
-4.64146423e-09
6.54033682e-07
-4.6030244e-09
6.54908158e-07
-4.54288233e-09
6.5576255e-07
-4.46271451e-09
6.56593298e-07
-4.3643611e-09
6.57397267e-07
-4.24977239e-09
6.58171764e-07
-4.12097541e-09
6.58914534e-07
-3.98001978e-09
6.59623759e-07
-3.82894627e-09
6.60298042e-07
-3.66974709e-09
6.60936386e-07
-3.50433947e-09
6.61538171e-07
-3.33453423e-09
6.62103121e-07
-3.16202177e-09
6.6263127e-07
-2.98835629e-09
6.63122928e-07
-2.8149398e-09
6.63578632e-07
-2.6430183e-09
6.63999098e-07
-2.47367067e-09
6.64385234e-07
-2.30778268e-09
6.64738238e-07
-2.14605492e-09
6.65059489e-07
-1.98907032e-09
6.65350468e-07
-1.8373154e-09
6.65612719e-07
-1.69118858e-09
6.65847812e-07
-1.55100028e-09
6.66057332e-07
-1.41697895e-09
6.66242855e-07
-1.28927462e-09
6.66405934e-07
-1.16796893e-09
6.66548092e-07
-1.05308208e-09
6.66670801e-07
-9.4457677e-10
6.66775461e-07
-8.4236376e-10
6.66863414e-07
-7.46336566e-10
6.66935945e-07
-6.56353564e-10
6.66994269e-07
-5.72227166e-10
6.67039533e-07
-4.93736088e-10
6.67072821e-07
-4.20630255e-10
6.67095175e-07
-3.52635938e-10
6.6710761e-07
-2.89461954e-10
6.67111141e-07
-2.30809322e-10
6.67106803e-07
-1.76382932e-10
6.67095676e-07
-1.25899444e-10
6.6707903e-07
-7.91832737e-11
6.67058772e-07
-3.65184511e-11
6.67038439e-07
5.17624149e-13
6.67011538e-07
3.72812014e-11
6.66977912e-07
6.7612725e-11
6.66939097e-07
9.40130235e-11
6.66896037e-07
1.17588174e-10
6.66849582e-07
1.38916343e-10
6.66800521e-07
1.58221315e-10
6.66749516e-07
1.7566577e-10
6.66697093e-07
1.91390609e-10
6.66643655e-07
2.05497371e-10
6.66589503e-07
2.18053194e-10
6.66534856e-07
2.29109669e-10
6.6647988e-07
2.38722951e-10
6.66424705e-07
2.46961061e-10
6.66369446e-07
2.53902465e-10
6.66314212e-07
2.59634107e-10
6.66259111e-07
2.642484e-10
6.66204252e-07
2.67839105e-10
6.66149745e-07
2.7049825e-10
6.66095696e-07
2.7231316e-10
6.66042209e-07
2.73364928e-10
6.6598938e-07
2.7372668e-10
6.65937299e-07
2.73463679e-10
6.65886044e-07
2.72632824e-10
6.65835683e-07
2.7128395e-10
6.65786274e-07
2.69460601e-10
6.65737865e-07
2.6720149e-10
6.65690494e-07
2.64541223e-10
6.65644191e-07
2.61511792e-10
6.6559898e-07
2.58143439e-10
6.65554878e-07
2.54464883e-10
6.65511899e-07
2.50504088e-10
6.65470056e-07
2.46288379e-10
6.65429359e-07
2.4184395e-10
6.65389817e-07
2.37196018e-10
6.65351442e-07
2.32368521e-10
6.65314243e-07
2.27383489e-10
6.6527823e-07
2.22261198e-10
6.65243414e-07
2.17019759e-10
6.65209805e-07
2.11675288e-10
6.65177413e-07
2.06241456e-10
6.65146248e-07
2.00730008e-10
6.65116322e-07
1.95149617e-10
6.65087649e-07
1.89509308e-10
6.65060248e-07
1.83799778e-10
6.6503414e-07
1.78068485e-10
6.65009404e-07
1.72066924e-10
6.64985987e-07
1.6679063e-10
1.57246332e-10
6.6661695e-07
1.83197124e-10
6.66465562e-07
5.12971276e-10
6.66235853e-07
7.65086001e-10
6.65955377e-07
9.16588699e-10
6.65653931e-07
9.56736948e-10
6.6535908e-07
8.94287865e-10
6.65093884e-07
7.45793748e-10
6.64876958e-07
5.24177533e-10
6.64718504e-07
2.40184872e-10
6.64643812e-07
-9.19545545e-11
6.64654327e-07
-4.30079321e-10
6.6473992e-07
-7.17535152e-10
6.64881228e-07
-9.02214494e-10
6.65048456e-07
-9.41793597e-10
6.65205899e-07
-8.18916368e-10
6.65316751e-07
-5.44706363e-10
6.6534455e-07
-1.52209473e-10
6.65282333e-07
2.973387e-10
6.65120444e-07
7.53656653e-10
6.64865722e-07
1.16872972e-09
6.64536808e-07
1.50583783e-09
6.64157713e-07
1.74101854e-09
6.6375474e-07
1.86375851e-09
6.63353386e-07
1.87514699e-09
6.62976711e-07
1.78499966e-09
6.62644375e-07
1.61031284e-09
6.62371598e-07
1.37475334e-09
6.6216767e-07
1.10892399e-09
6.62034057e-07
8.50392772e-10
6.61962646e-07
6.41801228e-10
6.61935076e-07
5.25886671e-10
6.6192392e-07
5.37812385e-10
6.61895935e-07
6.96760087e-10
6.61817256e-07
9.99327129e-10
6.6165962e-07
1.41763306e-09
6.61405834e-07
1.90402655e-09
6.61052746e-07
2.40161303e-09
6.6061075e-07
2.85759375e-09
6.60099889e-07
3.23523354e-09
6.59543858e-07
3.52061062e-09
6.58963896e-07
3.7221461e-09
6.58374476e-07
3.86361554e-09
6.57781872e-07
3.97377798e-09
6.57185488e-07
4.07675652e-09
6.56580847e-07
4.1864148e-09
6.55962774e-07
4.30578911e-09
6.55327608e-07
4.43036074e-09
6.54674021e-07
4.55271106e-09
6.54002687e-07
4.66627548e-09
6.53315435e-07
4.76706122e-09
6.52614465e-07
4.85349314e-09
6.51901908e-07
4.92530054e-09
6.51179772e-07
4.98239815e-09
6.50450068e-07
5.02428173e-09
6.49714978e-07
5.04996816e-09
6.48976942e-07
5.05823316e-09
6.48238662e-07
5.04787784e-09
6.47503065e-07
5.01788645e-09
6.46773247e-07
4.96746343e-09
6.46052427e-07
4.89600865e-09
6.4534392e-07
4.80308522e-09
6.44651104e-07
4.68840561e-09
6.43977397e-07
4.55183247e-09
6.4332623e-07
4.39338707e-09
6.42701017e-07
4.21325131e-09
6.42105131e-07
4.01176865e-09
6.41541891e-07
3.78944281e-09
6.41014544e-07
3.54692699e-09
6.40526257e-07
3.28502497e-09
6.4008011e-07
3.00468186e-09
6.39679087e-07
2.70696542e-09
6.39326062e-07
2.39305329e-09
6.3902378e-07
2.06420888e-09
6.38774802e-07
1.72176518e-09
6.3858136e-07
1.36712777e-09
6.38445012e-07
1.00175864e-09
6.38368148e-07
6.27212174e-10
6.38354846e-07
2.44262186e-10
6.38405404e-07
-1.43608503e-10
6.38520904e-07
-5.34187482e-10
6.38702526e-07
-9.26151462e-10
6.38950655e-07
-1.31802228e-09
6.39265396e-07
-1.70755683e-09
6.39646189e-07
-2.09233153e-09
6.40091931e-07
-2.4699147e-09
6.40601006e-07
-2.83771756e-09
6.41171229e-07
-3.19303031e-09
6.41799836e-07
-3.5331048e-09
6.42483503e-07
-3.85519149e-09
6.43218377e-07
-4.15660019e-09
6.44000121e-07
-4.434767e-09
6.44823959e-07
-4.68733198e-09
6.45684732e-07
-4.91220159e-09
6.46576952e-07
-5.10761872e-09
6.47494877e-07
-5.27221512e-09
6.48432581e-07
-5.40504065e-09
6.49384042e-07
-5.50559307e-09
6.5034324e-07
-5.57382544e-09
6.51304246e-07
-5.61013073e-09
6.52261316e-07
-5.61533084e-09
6.53208977e-07
-5.59064592e-09
6.54142098e-07
-5.53764518e-09
6.55055955e-07
-5.45820825e-09
6.55946274e-07
-5.35446544e-09
6.56809271e-07
-5.22874579e-09
6.57641671e-07
-5.08350853e-09
6.58440714e-07
-4.92129917e-09
6.59204156e-07
-4.74468172e-09
6.59930251e-07
-4.55619857e-09
6.60617733e-07
-4.35832122e-09
6.61265786e-07
-4.15341728e-09
6.61874007e-07
-3.94371213e-09
6.62442367e-07
-3.73127181e-09
6.6297117e-07
-3.51798445e-09
6.63461013e-07
-3.30554241e-09
6.63912736e-07
-3.0954403e-09
6.64327397e-07
-2.88896988e-09
6.64706246e-07
-2.68721414e-09
6.65050724e-07
-2.49106146e-09
6.65362411e-07
-2.30123236e-09
6.65642971e-07
-2.11830106e-09
6.65894122e-07
-1.94271587e-09
6.66117599e-07
-1.77480787e-09
6.66315136e-07
-1.61480304e-09
6.66488445e-07
-1.46282956e-09
6.66639198e-07
-1.31893122e-09
6.66769019e-07
-1.18307756e-09
6.6687947e-07
-1.05517286e-09
6.66972058e-07
-9.35069618e-10
6.67048214e-07
-8.2258225e-10
6.67109288e-07
-7.17488372e-10
6.67156562e-07
-6.1953099e-10
6.67191255e-07
-5.28424052e-10
6.67214523e-07
-4.43857565e-10
6.67227473e-07
-3.65505219e-10
6.6723117e-07
-2.9303402e-10
6.67226654e-07
-2.26123014e-10
6.67215008e-07
-1.64517766e-10
6.67197392e-07
-1.07995996e-10
6.6717462e-07
-5.59964324e-11
6.67145718e-07
-6.98703331e-12
6.67110915e-07
3.56987838e-11
6.67074344e-07
7.42241078e-11
6.67033885e-07
1.08406847e-10
6.66989687e-07
1.38538108e-10
6.66942281e-07
1.65314163e-10
6.66892216e-07
1.89291152e-10
6.66839923e-07
2.10806836e-10
6.66785797e-07
2.30065013e-10
6.66730226e-07
2.47212315e-10
6.66673575e-07
2.62377036e-10
6.66616166e-07
2.75669921e-10
6.66558277e-07
2.87186885e-10
6.66500147e-07
2.97026107e-10
6.66441972e-07
3.05295539e-10
6.66383915e-07
3.12108161e-10
6.6632611e-07
3.17577308e-10
6.66268676e-07
3.21813928e-10
6.66211714e-07
3.24924583e-10
6.6615532e-07
3.2701067e-10
6.66099578e-07
3.28167161e-10
6.66044567e-07
3.28481976e-10
6.65990361e-07
3.28034275e-10
6.65937026e-07
3.26895411e-10
6.65884622e-07
3.25128756e-10
6.65833202e-07
3.22791031e-10
6.65782813e-07
3.19932749e-10
6.65733493e-07
3.16599438e-10
6.65685276e-07
3.12832061e-10
6.6563819e-07
3.08668411e-10
6.65592256e-07
3.04143862e-10
6.65547492e-07
2.99291441e-10
6.65503913e-07
2.94142645e-10
6.6546153e-07
2.88727598e-10
6.65420352e-07
2.83074706e-10
6.65380388e-07
2.77210813e-10
6.65341643e-07
2.7116108e-10
6.65304122e-07
2.64948377e-10
6.65267832e-07
2.58593488e-10
6.65232776e-07
2.52114723e-10
6.6519896e-07
2.45528202e-10
6.65166388e-07
2.38847339e-10
6.65135067e-07
2.32083398e-10
6.65105002e-07
2.2524413e-10
6.65076201e-07
2.18337738e-10
6.65048673e-07
2.11353258e-10
6.65022416e-07
2.04345808e-10
6.64997457e-07
1.97056039e-10
6.64973511e-07
1.90700928e-10
1.79579819e-10
6.66609261e-07
2.40221148e-10
6.66456035e-07
6.65994027e-10
6.6622787e-07
9.92908742e-10
6.65951663e-07
1.19225824e-09
6.65656003e-07
1.25180228e-09
6.6536691e-07
1.18281783e-09
6.65106562e-07
1.00560906e-09
6.64894047e-07
7.36168836e-10
6.64745858e-07
3.87867297e-10
6.64670354e-07
-1.71158142e-11
6.64671677e-07
-4.31561613e-10
6.64746484e-07
-7.92348284e-10
6.64875872e-07
-1.03153077e-09
6.65030009e-07
-1.09582649e-09
6.65173266e-07
-9.62102948e-10
6.6527135e-07
-6.42845562e-10
6.65300337e-07
-1.81429451e-10
6.65240983e-07
3.56437163e-10
6.65088146e-07
9.0633848e-10
6.64849158e-07
1.40761818e-09
6.64539866e-07
1.81505165e-09
6.64181281e-07
2.09951827e-09
6.63797091e-07
2.24784373e-09
6.63411218e-07
2.26088456e-09
6.63045907e-07
2.15013957e-09
6.62720567e-07
1.93544165e-09
6.62450672e-07
1.64440025e-09
6.62246201e-07
1.31311517e-09
6.62109668e-07
9.86625506e-10
6.62034204e-07
7.16949471e-10
6.62002553e-07
5.57204388e-10
6.61988015e-07
5.51989697e-10
6.61958125e-07
7.26254075e-10
6.61880186e-07
1.0768215e-09
6.61726995e-07
1.57031692e-09
6.61481611e-07
2.14883115e-09
6.61140023e-07
2.74254665e-09
6.60710843e-07
3.28604319e-09
6.60211989e-07
3.73328306e-09
6.59665338e-07
4.06638883e-09
6.59091077e-07
4.29547246e-09
6.58503521e-07
4.4501791e-09
6.57909495e-07
4.56675851e-09
6.57309292e-07
4.67586575e-09
6.56699284e-07
4.79528331e-09
6.56074856e-07
4.92903311e-09
6.5543256e-07
5.07143305e-09
6.54771003e-07
5.2130061e-09
6.54090674e-07
5.34531021e-09
6.5339322e-07
5.46319265e-09
6.52680731e-07
5.5646356e-09
6.51955324e-07
5.64934263e-09
6.51219054e-07
5.7172911e-09
6.50474017e-07
5.76793411e-09
6.49722494e-07
5.80010473e-09
6.48967033e-07
5.81231191e-09
6.48210457e-07
5.80308171e-09
6.47455826e-07
5.77116194e-09
6.46706384e-07
5.71557199e-09
6.45965517e-07
5.63557152e-09
6.45236713e-07
5.53061902e-09
6.44523536e-07
5.4003535e-09
6.4382959e-07
5.24459591e-09
6.43158486e-07
5.06336024e-09
6.42513807e-07
4.85685621e-09
6.41899075e-07
4.62548835e-09
6.41317723e-07
4.36984854e-09
6.40773078e-07
4.09069368e-09
6.40268361e-07
3.78893571e-09
6.39806688e-07
3.46562277e-09
6.3939108e-07
3.12191712e-09
6.39024469e-07
2.75908739e-09
6.38709685e-07
2.37849681e-09
6.38449442e-07
1.98159651e-09
6.38246326e-07
1.56991912e-09
6.38102765e-07
1.14508633e-09
6.38020849e-07
7.08991849e-10
6.38000984e-07
2.64067052e-10
6.38045984e-07
-1.88538224e-10
6.38157961e-07
-6.46028049e-10
6.38338302e-07
-1.10626214e-09
6.38587445e-07
-1.56684098e-09
6.38905443e-07
-2.02514174e-09
6.39291933e-07
-2.47832346e-09
6.39745978e-07
-2.92337592e-09
6.4026605e-07
-3.35712377e-09
6.40850025e-07
-3.77626254e-09
6.41495171e-07
-4.17743429e-09
6.42198146e-07
-4.55727932e-09
6.4295501e-07
-4.91251293e-09
6.43761258e-07
-5.24000493e-09
6.44611864e-07
-5.53687253e-09
6.45501332e-07
-5.80055616e-09
6.46423775e-07
-6.0289053e-09
6.47372998e-07
-6.22024498e-09
6.48342595e-07
-6.37341517e-09
6.49326057e-07
-6.48781017e-09
6.50316884e-07
-6.56338995e-09
6.51308687e-07
-6.60066227e-09
6.52295299e-07
-6.60066806e-09
6.53270866e-07
-6.56494157e-09
6.5422993e-07
-6.49544744e-09
6.55167497e-07
-6.39452935e-09
6.5607909e-07
-6.26483338e-09
6.56960784e-07
-6.1092409e-09
6.57809226e-07
-5.93078221e-09
6.58621641e-07
-5.73258007e-09
6.59395821e-07
-5.51776615e-09
6.60130109e-07
-5.28943091e-09
6.60823363e-07
-5.05056389e-09
6.61474927e-07
-4.80401397e-09
6.6208458e-07
-4.55244444e-09
6.62652495e-07
-4.29831354e-09
6.63179191e-07
-4.04385432e-09
6.63665484e-07
-3.79105603e-09
6.64112442e-07
-3.54166542e-09
6.64521345e-07
-3.2971861e-09
6.64893652e-07
-3.05887902e-09
6.65230971e-07
-2.82778094e-09
6.6553502e-07
-2.60472423e-09
6.65807592e-07
-2.39035539e-09
6.66050515e-07
-2.18516007e-09
6.66265627e-07
-1.98947765e-09
6.6645475e-07
-1.80351961e-09
6.66619675e-07
-1.62738178e-09
6.66762148e-07
-1.46106284e-09
6.6688386e-07
-1.30447794e-09
6.66986441e-07
-1.15746929e-09
6.6707145e-07
-1.01981969e-09
6.67140366e-07
-8.91262535e-10
6.6719458e-07
-7.71488463e-10
6.67235398e-07
-6.60154667e-10
6.67264041e-07
-5.56893095e-10
6.67281657e-07
-4.61318345e-10
6.67289325e-07
-3.7303774e-10
6.67288068e-07
-2.91661088e-10
6.67278855e-07
-2.16810536e-10
6.67262542e-07
-1.48118175e-10
6.67239766e-07
-8.51579935e-11
6.67211147e-07
-2.73952086e-11
6.67178687e-07
2.52564215e-11
6.67142057e-07
7.21764029e-11
6.67101639e-07
1.14517477e-10
6.67057564e-07
1.52371379e-10
6.67009981e-07
1.86017059e-10
6.66959312e-07
2.15880412e-10
6.66906156e-07
2.42345818e-10
6.66851123e-07
2.65745419e-10
6.66794726e-07
2.86379952e-10
6.66737352e-07
3.0451778e-10
6.66679295e-07
3.20378223e-10
6.66620786e-07
3.34133424e-10
6.66562009e-07
3.45926216e-10
6.66503117e-07
3.55887358e-10
6.66444243e-07
3.64142357e-10
6.66385513e-07
3.70813374e-10
6.66327046e-07
3.76020695e-10
6.66268955e-07
3.79881534e-10
6.66211348e-07
3.82508345e-10
6.66154328e-07
3.84007637e-10
6.66097991e-07
3.844804e-10
6.66042425e-07
3.84022929e-10
6.65987712e-07
3.82723173e-10
6.65933922e-07
3.80661943e-10
6.65881114e-07
3.77911948e-10
6.65829343e-07
3.74538905e-10
6.6577865e-07
3.70601899e-10
6.65729072e-07
3.66154582e-10
6.65680637e-07
3.61245244e-10
6.65633365e-07
3.55918051e-10
6.65587274e-07
3.50213631e-10
6.65542375e-07
3.44169043e-10
6.65498678e-07
3.37818761e-10
6.6545619e-07
3.31194964e-10
6.65414917e-07
3.24327186e-10
6.65374865e-07
3.17242889e-10
6.65336039e-07
3.09967494e-10
6.65298444e-07
3.02523953e-10
6.65262084e-07
2.94933281e-10
6.65226966e-07
2.87214142e-10
6.65193092e-07
2.7938305e-10
6.65160467e-07
2.71453707e-10
6.65129094e-07
2.63437619e-10
6.65098977e-07
2.55342863e-10
6.65070119e-07
2.47177859e-10
6.65042524e-07
2.38932197e-10
6.65016189e-07
2.30660003e-10
6.64991159e-07
2.22078096e-10
6.64967341e-07
2.14450832e-10
2.01279356e-10
6.66612597e-07
2.94055992e-10
6.66459478e-07
8.19315574e-10
6.66226726e-07
1.22591103e-09
6.65940161e-07
1.47895605e-09
6.65629676e-07
1.56237221e-09
6.65323951e-07
1.48864279e-09
6.65047986e-07
1.28167925e-09
6.64823664e-07
9.6057551e-10
6.64669962e-07
5.41634364e-10
6.64601388e-07
5.13592589e-11
6.64619102e-07
-4.49462282e-10
6.64720521e-07
-8.9402018e-10
6.64884922e-07
-1.19621177e-09
6.65079257e-07
-1.29043861e-09
6.65263848e-07
-1.14695373e-09
6.65400209e-07
-7.79424878e-10
6.6545815e-07
-2.39498328e-10
6.65413919e-07
4.00632158e-10
6.65263333e-07
1.05691334e-09
6.65013743e-07
1.65718182e-09
6.6468396e-07
2.14481466e-09
6.64299169e-07
2.48431858e-09
6.63886951e-07
2.66010252e-09
6.63474929e-07
2.67297538e-09
6.63088861e-07
2.53630272e-09
6.62751097e-07
2.27332852e-09
6.62479085e-07
1.91656357e-09
6.62283593e-07
1.50878567e-09
6.62166662e-07
1.10375829e-09
6.62119834e-07
7.64003113e-10
6.62123598e-07
5.5369514e-10
6.6214885e-07
5.27028992e-10
6.62160168e-07
7.15267326e-10
6.62120911e-07
1.1164548e-09
6.61999837e-07
1.69182001e-09
6.61777124e-07
2.37203017e-09
6.61447752e-07
3.07246409e-09
6.61021174e-07
3.71322518e-09
6.60517445e-07
4.23767557e-09
6.59961096e-07
4.62346014e-09
6.59374759e-07
4.88258674e-09
6.58774501e-07
5.05126813e-09
6.58168016e-07
5.17412421e-09
6.57555685e-07
5.28912482e-09
6.56933452e-07
5.41848764e-09
6.56296067e-07
5.56743073e-09
6.55639471e-07
5.72907706e-09
6.54961828e-07
5.89173034e-09
6.54263361e-07
6.04488647e-09
6.535456e-07
6.18208838e-09
6.52810602e-07
6.30078779e-09
6.52060498e-07
6.40061645e-09
6.51297383e-07
6.48158578e-09
6.50523425e-07
6.54307724e-09
6.49741011e-07
6.58370452e-09
6.48952835e-07
6.60166983e-09
6.48161902e-07
6.59518555e-09
6.4737149e-07
6.56273053e-09
6.46585083e-07
6.50311522e-09
6.45806322e-07
6.41544452e-09
6.45038956e-07
6.29906624e-09
6.44286809e-07
6.15354667e-09
6.43553742e-07
5.97866958e-09
6.42843619e-07
5.77444528e-09
6.4216028e-07
5.54110849e-09
6.41507519e-07
5.27911138e-09
6.40889061e-07
4.98911167e-09
6.40308555e-07
4.67194839e-09
6.39769543e-07
4.32863562e-09
6.39275448e-07
3.9603458e-09
6.38829545e-07
3.56838508e-09
6.38434953e-07
3.15418063e-09
6.38094623e-07
2.71926143e-09
6.37811343e-07
2.26524244e-09
6.37587722e-07
1.7938325e-09
6.37426183e-07
1.30684309e-09
6.37329122e-07
8.06192896e-10
6.37299266e-07
2.93989711e-10
6.37338223e-07
-2.27516918e-10
6.37447664e-07
-7.55562856e-10
6.376288e-07
-1.28757083e-09
6.37882538e-07
-1.82083154e-09
6.38209326e-07
-2.35226031e-09
6.38609076e-07
-2.8784777e-09
6.39081098e-07
-3.39587478e-09
6.39624059e-07
-3.90063064e-09
6.40235935e-07
-4.38874786e-09
6.40913968e-07
-4.8561396e-09
6.41654666e-07
-5.29870561e-09
6.42453805e-07
-5.71243483e-09
6.43306474e-07
-6.09350563e-09
6.44207125e-07
-6.43840032e-09
6.4514965e-07
-6.74399875e-09
6.46127474e-07
-7.00768217e-09
6.4713366e-07
-7.22741429e-09
6.48161027e-07
-7.4017914e-09
6.49202281e-07
-7.53009226e-09
6.50250141e-07
-7.61229403e-09
6.51297477e-07
-7.64905191e-09
6.52337432e-07
-7.64167942e-09
6.53363531e-07
-7.59209679e-09
6.54369783e-07
-7.50275035e-09
6.55350758e-07
-7.37654415e-09
6.56301642e-07
-7.21674205e-09
6.57218275e-07
-7.02688097e-09
6.58097172e-07
-6.8106631e-09
6.58935517e-07
-6.57188359e-09
6.59731149e-07
-6.31432865e-09
6.60482532e-07
-6.04171367e-09
6.61188713e-07
-5.75761188e-09
6.61849272e-07
-5.46540734e-09
6.62464273e-07
-5.16824346e-09
6.63034199e-07
-4.8690017e-09
6.63559899e-07
-4.57028061e-09
6.64042531e-07
-4.27437776e-09
6.64483508e-07
-3.98329513e-09
6.64884447e-07
-3.69874295e-09
6.65247131e-07
-3.42214479e-09
6.65573464e-07
-3.15466088e-09
6.65865435e-07
-2.8972089e-09
6.66125081e-07
-2.65048348e-09
6.66354456e-07
-2.41498574e-09
6.665556e-07
-2.19104274e-09
6.66730518e-07
-1.97883091e-09
6.66881162e-07
-1.77839173e-09
6.67009412e-07
-1.58965335e-09
6.67117065e-07
-1.41244728e-09
6.67205824e-07
-1.24652321e-09
6.67277299e-07
-1.09156833e-09
6.67333002e-07
-9.47221824e-10
6.67374359e-07
-8.1308498e-10
6.67402711e-07
-6.88731367e-10
6.6741932e-07
-5.73713052e-10
6.67425368e-07
-4.67565722e-10
6.67421957e-07
-3.69815677e-10
6.67410099e-07
-2.79985114e-10
6.67390711e-07
-1.97602809e-10
6.67364658e-07
-1.22255978e-10
6.67333072e-07
-5.37874875e-11
6.67297997e-07
7.56670552e-12
6.67257987e-07
6.52276019e-11
6.67213809e-07
1.16342449e-10
6.67166229e-07
1.62094421e-10
6.67115687e-07
2.02913891e-10
6.67062534e-07
2.39173886e-10
6.67007138e-07
2.71282675e-10
6.66949823e-07
2.99669626e-10
6.66890866e-07
3.24709304e-10
6.66830562e-07
3.46686176e-10
6.66769249e-07
3.65829853e-10
6.66707268e-07
3.82354135e-10
6.6664493e-07
3.96464625e-10
6.66582499e-07
4.08350681e-10
6.66520193e-07
4.1818752e-10
6.66458189e-07
4.26141568e-10
6.66396629e-07
4.32371683e-10
6.66335624e-07
4.37025192e-10
6.66275274e-07
4.40235009e-10
6.66215662e-07
4.42125799e-10
6.66156861e-07
4.42815214e-10
6.66098938e-07
4.42413539e-10
6.66041948e-07
4.41023465e-10
6.65985946e-07
4.38738423e-10
6.65930977e-07
4.35644039e-10
6.65877085e-07
4.31817677e-10
6.65824309e-07
4.2732985e-10
6.65772682e-07
4.22244343e-10
6.65722233e-07
4.16619313e-10
6.65672987e-07
4.10507281e-10
6.65624964e-07
4.03956482e-10
6.65578182e-07
3.97011457e-10
6.65532655e-07
3.89712909e-10
6.65488391e-07
3.82098674e-10
6.65445399e-07
3.7420391e-10
6.65403683e-07
3.66060631e-10
6.65363244e-07
3.57698392e-10
6.65324085e-07
3.491443e-10
6.65286204e-07
3.40422455e-10
6.652496e-07
3.31554577e-10
6.65214272e-07
3.22559659e-10
6.65180218e-07
3.13454358e-10
6.65147437e-07
3.04252389e-10
6.65115927e-07
2.94965338e-10
6.65085686e-07
2.85601354e-10
6.65056711e-07
2.76169699e-10
6.65029001e-07
2.66660254e-10
6.65002536e-07
2.57138998e-10
6.64977326e-07
2.47314133e-10
6.64953058e-07
2.38679537e-10
2.2407509e-10
6.66611845e-07
3.48544958e-10
6.66457529e-07
9.73779584e-10
6.66223487e-07
1.46009596e-09
6.65936036e-07
1.76640337e-09
6.65624877e-07
1.87348304e-09
6.65318218e-07
1.79528965e-09
6.65040861e-07
1.55906172e-09
6.64814408e-07
1.18707465e-09
6.64657289e-07
6.98808116e-10
6.64581272e-07
1.27459748e-10
6.64601781e-07
-4.69736289e-10
6.64705721e-07
-9.97700682e-10
6.64872502e-07
-1.36272591e-09
6.65069537e-07
-1.4872262e-09
6.65257873e-07
-1.33505815e-09
6.65398828e-07
-9.20169313e-10
6.65459743e-07
-3.00249424e-10
6.6542428e-07
4.36172666e-10
6.6528482e-07
1.19640576e-09
6.65048432e-07
1.89358649e-09
6.64731819e-07
2.4614157e-09
6.64358583e-07
2.85750859e-09
6.63955826e-07
3.06278421e-09
6.63551116e-07
3.07759006e-09
6.63170347e-07
2.91696134e-09
6.62836239e-07
2.60731651e-09
6.62566919e-07
2.18575517e-09
6.62374158e-07
1.70141182e-09
6.62261205e-07
1.21656653e-09
6.62220762e-07
8.04289913e-10
6.62233922e-07
5.40355788e-10
6.62271e-07
4.89735247e-10
6.62295405e-07
6.90613288e-10
6.62269887e-07
1.14168711e-09
6.6216296e-07
1.79841923e-09
6.61954347e-07
2.58027317e-09
6.61638183e-07
3.38821529e-09
6.61222924e-07
4.12802754e-09
6.60727825e-07
4.73227506e-09
6.60177038e-07
5.17370658e-09
6.59593246e-07
5.4657967e-09
6.58992841e-07
5.65105189e-09
6.58383903e-07
5.78240279e-09
6.57767089e-07
5.90524349e-09
6.57138442e-07
6.04640462e-09
6.56492658e-07
6.2124526e-09
6.5582555e-07
6.39539361e-09
6.55135146e-07
6.58131652e-09
6.54421578e-07
6.75761456e-09
6.53686335e-07
6.91647228e-09
6.52931485e-07
7.0547631e-09
6.52159204e-07
7.17200953e-09
6.51371669e-07
7.26822551e-09
6.50571157e-07
7.34268951e-09
6.49760198e-07
7.39376198e-09
6.48941667e-07
7.41930316e-09
6.48118785e-07
7.41717727e-09
6.47295074e-07
7.38556265e-09
6.46474291e-07
7.32303286e-09
6.45660377e-07
7.22851359e-09
6.44857398e-07
7.10122098e-09
6.44069516e-07
6.94063217e-09
6.43300934e-07
6.74648484e-09
6.42555856e-07
6.51878999e-09
6.41838437e-07
6.25783233e-09
6.4115273e-07
5.96416255e-09
6.40502652e-07
5.63857751e-09
6.39891952e-07
5.28207852e-09
6.39324218e-07
4.89584523e-09
6.38802882e-07
4.48120128e-09
6.38331249e-07
4.03958164e-09
6.37912514e-07
3.57252531e-09
6.37549763e-07
3.0816681e-09
6.37245968e-07
2.56874235e-09
6.37003965e-07
2.03559217e-09
6.36826433e-07
1.48418348e-09
6.36715853e-07
9.16636529e-10
6.36674401e-07
3.35361936e-10
6.36704454e-07
-2.5758975e-10
6.36808123e-07
-8.5919462e-10
6.36987164e-07
-1.46651808e-09
6.3724279e-07
-2.07630633e-09
6.37575698e-07
-2.68496244e-09
6.37986034e-07
-3.28855632e-09
6.38473313e-07
-3.88284894e-09
6.39036354e-07
-4.46332258e-09
6.39673224e-07
-5.02522621e-09
6.40381185e-07
-5.5636716e-09
6.4115667e-07
-6.07372526e-09
6.41995269e-07
-6.55053615e-09
6.42891754e-07
-6.98946184e-09
6.43840122e-07
-7.38621312e-09
6.44833681e-07
-7.73697645e-09
6.45865149e-07
-8.03854791e-09
6.46926796e-07
-8.28843909e-09
6.48010588e-07
-8.48494401e-09
6.4910835e-07
-8.62720184e-09
6.50211937e-07
-8.71521633e-09
6.51313387e-07
-8.74982963e-09
6.52405079e-07
-8.73269353e-09
6.53479864e-07
-8.66620117e-09
6.54531178e-07
-8.55338366e-09
6.55553132e-07
-8.39781942e-09
6.56540573e-07
-8.20350943e-09
6.57489124e-07
-7.97476578e-09
6.58395195e-07
-7.71607753e-09
6.59255976e-07
-7.43201885e-09
6.60069405e-07
-7.12712557e-09
6.60834127e-07
-6.80581959e-09
6.6154944e-07
-6.47232476e-09
6.62215226e-07
-6.13061237e-09
6.62831888e-07
-5.78434361e-09
6.63400276e-07
-5.43684756e-09
6.63921617e-07
-5.09110083e-09
6.64397449e-07
-4.74971142e-09
6.6482956e-07
-4.41492935e-09
6.65219928e-07
-4.08865583e-09
6.65570669e-07
-3.77245366e-09
6.65883994e-07
-3.46757672e-09
6.66162169e-07
-3.17499532e-09
6.66407471e-07
-2.89541943e-09
6.66622164e-07
-2.62933343e-09
6.66808466e-07
-2.37702064e-09
6.66968533e-07
-2.13859286e-09
6.67104439e-07
-1.91401231e-09
6.67218172e-07
-1.70311991e-09
6.67311631e-07
-1.50565647e-09
6.6738662e-07
-1.3212785e-09
6.67444846e-07
-1.1495757e-09
6.67487914e-07
-9.90083025e-10
6.67517316e-07
-8.42291359e-10
6.67534433e-07
-7.05662348e-10
6.67540539e-07
-5.79640805e-10
6.67536812e-07
-4.63665754e-10
6.67524349e-07
-3.5718278e-10
6.67504189e-07
-2.59653751e-10
6.67477321e-07
-1.70550943e-10
6.67444523e-07
-8.9234925e-11
6.67405512e-07
-1.44837847e-11
6.67361059e-07
5.21191459e-11
6.67313927e-07
1.12421381e-10
6.67263469e-07
1.66843694e-10
6.67210045e-07
2.15554518e-10
6.67154024e-07
2.58962286e-10
6.67095746e-07
2.97475155e-10
6.67035558e-07
3.31489144e-10
6.66973864e-07
3.6137908e-10
6.66911082e-07
3.8750449e-10
6.66847567e-07
4.10212879e-10
6.66783589e-07
4.29820872e-10
6.66719354e-07
4.46600358e-10
6.66655044e-07
4.60783172e-10
6.66590828e-07
4.72572757e-10
6.66526857e-07
4.82160723e-10
6.66463268e-07
4.89728841e-10
6.6640019e-07
4.95445905e-10
6.66337737e-07
4.99469665e-10
6.66276014e-07
5.01947612e-10
6.6621511e-07
5.03017207e-10
6.66155104e-07
5.02806575e-10
6.66096067e-07
5.01434268e-10
6.66038063e-07
4.99010338e-10
6.65981147e-07
4.95635751e-10
6.65925368e-07
4.91403867e-10
6.65870766e-07
4.86399504e-10
6.65817375e-07
4.80700372e-10
6.65765222e-07
4.74377079e-10
6.65714327e-07
4.67494149e-10
6.65664704e-07
4.60109711e-10
6.65616364e-07
4.52276745e-10
6.65569311e-07
4.44043544e-10
6.65523551e-07
4.35453513e-10
6.65479083e-07
4.2654634e-10
6.65435908e-07
4.17358384e-10
6.65394026e-07
4.07922363e-10
6.65353436e-07
3.98268273e-10
6.65314136e-07
3.88423523e-10
6.65276126e-07
3.78412429e-10
6.65239403e-07
3.68256994e-10
6.65203966e-07
3.57976549e-10
6.65169813e-07
3.47588176e-10
6.65136939e-07
3.37106032e-10
6.65105343e-07
3.26542228e-10
6.65075019e-07
3.15905666e-10
6.65045963e-07
3.05206245e-10
6.65018171e-07
2.94434966e-10
6.64991632e-07
2.83655227e-10
6.64966386e-07
2.72551151e-10
6.64942358e-07
2.62637317e-10
2.45944751e-10
6.66611292e-07
4.03683778e-10
6.66454768e-07
1.13045052e-09
6.66216183e-07
1.69883253e-09
6.6592183e-07
2.06076128e-09
6.65602357e-07
2.19290545e-09
6.65287474e-07
2.11013793e-09
6.65003332e-07
1.84317826e-09
6.64773175e-07
1.41718585e-09
6.64617818e-07
8.54094551e-10
6.64554071e-07
1.91101073e-10
6.64581822e-07
-4.97652288e-10
6.64698971e-07
-1.11501391e-09
6.64883523e-07
-1.54744236e-09
6.65100869e-07
-1.70471711e-09
6.65309483e-07
-1.54380503e-09
6.65468692e-07
-1.07949683e-09
6.65546235e-07
-3.77893168e-10