/*--------------------------------*- C++ -*----------------------------------*\
| =========                 |                                                 |
| \\      /  F ield         | OpenFOAM: The Open Source CFD Toolbox           |
|  \\    /   O peration     | Version:  v2012                                 |
|   \\  /    A nd           | Website:  www.openfoam.com                      |
|    \\/     M anipulation  |                                                 |
\*---------------------------------------------------------------------------*/
FoamFile
{
    version     2.0;
    format      ascii;
    class       volScalarField;
    location    "2.24";
    object      rAU;
}
// * * * * * * * * * * * * * * * * * * * * * * * * * * * * * * * * * * * * * //

dimensions      [0 0 1 0 0 0 0];


internalField   nonuniform List<scalar> 
28416
(
0.000679691826
0.000679703191
0.000679702564
0.000679703831
0.000679706874
0.000679711282
0.000679716552
0.000679722263
0.000679727376
0.000679726689
0.000679724528
0.000679722221
0.000679720279
0.000679719248
0.000679719542
0.000679721339
0.000679724521
0.000679722194
0.000679716724
0.000679712798
0.00067971076
0.0006797108
0.000679712879
0.000679716781
0.000679722148
0.000679728501
0.00067973528
0.00067974186
0.000679747602
0.000679751898
0.000679754265
0.00067975444
0.00067975246
0.00067974871
0.000679743896
0.000679738923
0.000679734702
0.000679731956
0.000679731078
0.000679732086
0.000679734686
0.000679738411
0.000679742783
0.000679747445
0.000679752218
0.000679757087
0.000679762132
0.000679767461
0.000679773156
0.000679779256
0.000679785763
0.000679792662
0.000679799936
0.000679807573
0.000679815564
0.000679823902
0.000679832578
0.000679841576
0.000679850874
0.000679860447
0.000679870265
0.000679880296
0.000679890503
0.000679900849
0.00067991129
0.000679921783
0.000679932285
0.000679942744
0.000679953109
0.000679963331
0.00067997335
0.000679983108
0.000679992549
0.000680001611
0.000680010239
0.000680018387
0.000680026011
0.000680033107
0.000680037299
0.000680032791
0.000680027507
0.000680021463
0.000680014684
0.000680007202
0.000679999048
0.000679990264
0.000679980891
0.000679970989
0.000679960612
0.000679949826
0.000679938698
0.000679927304
0.000679915713
0.000679903998
0.000679892235
0.00067988049
0.000679868832
0.000679857329
0.000679846038
0.000679835014
0.000679824311
0.000679813971
0.000679804032
0.000679794526
0.000679785481
0.000679776911
0.000679768835
0.000679761256
0.000679754179
0.000679747599
0.000679741514
0.000679735911
0.000679730777
0.0006797261
0.000679721859
0.000679718035
0.000679714614
0.000679711571
0.000679708888
0.000679706547
0.000679704522
0.000679702792
0.000679701333
0.000679700127
0.000679699151
0.000679698383
0.00067969781
0.000679697409
0.000679697164
0.000679697064
0.00067969709
0.000679697229
0.000679697473
0.000679697808
0.000679698223
0.000679698714
0.000679699268
0.000679699877
0.000679700536
0.000679701229
0.00067970194
0.000679702608
0.00067970259
0.000679702349
0.000679702247
0.00067970225
0.000679702337
0.000679702492
0.000679702711
0.00067970298
0.000679703293
0.000679703652
0.000679704048
0.000679704479
0.000679704946
0.000679705443
0.000679705966
0.000679706515
0.000679707083
0.000679707668
0.000679708265
0.000679708875
0.000679709489
0.000679710112
0.000679710735
0.00067971136
0.000679711982
0.000679712605
0.000679713223
0.000679713836
0.000679714446
0.000679715049
0.000679715643
0.000679716233
0.000679716813
0.000679717382
0.000679717944
0.000679718495
0.000679719034
0.000679719561
0.000679720078
0.000679720581
0.00067972107
0.000679721548
0.000679722011
0.000679722459
0.000679722895
0.000679723318
0.000679723706
0.00067973795
0.000679681461
0.000679693134
0.000679692892
0.000679694457
0.000679697599
0.000679701888
0.000679706846
0.000679712096
0.000679717389
0.000679719057
0.000679715898
0.000679712333
0.000679709107
0.000679706959
0.000679706448
0.000679707869
0.000679711262
0.000679709841
0.000679706333
0.000679704435
0.000679704357
0.000679706102
0.000679709474
0.000679714154
0.000679719753
0.000679725825
0.000679731908
0.000679737523
0.000679742204
0.000679745539
0.000679747236
0.000679747207
0.000679745623
0.000679742934
0.000679739813
0.000679737037
0.000679735324
0.000679735178
0.000679736794
0.000679740053
0.000679744596
0.000679749967
0.000679755746
0.000679761654
0.000679767581
0.000679773553
0.000679779669
0.000679786033
0.000679792716
0.000679799743
0.000679807105
0.000679814782
0.000679822749
0.000679830988
0.000679839486
0.000679848229
0.000679857197
0.000679866368
0.000679875714
0.000679885204
0.000679894804
0.000679904476
0.000679914181
0.000679923879
0.000679933525
0.000679943073
0.000679952483
0.000679961702
0.000679970685
0.000679979385
0.000679987752
0.000679995736
0.000680003293
0.000680010373
0.000680016932
0.000680022937
0.000680028338
0.000680033077
0.000680034179
0.000680028885
0.000680022796
0.000680015918
0.00068000827
0.000679999882
0.000679990788
0.000679981037
0.000679970675
0.000679959766
0.000679948373
0.00067993657
0.000679924432
0.000679912043
0.000679899481
0.00067988683
0.000679874175
0.000679861593
0.000679849161
0.000679836954
0.000679825037
0.000679813471
0.000679802313
0.000679791606
0.000679781391
0.000679771696
0.00067976255
0.000679753962
0.000679745946
0.000679738501
0.000679731625
0.000679725306
0.000679719537
0.000679714295
0.000679709562
0.000679705318
0.000679701536
0.000679698191
0.000679695261
0.000679692716
0.000679690532
0.000679688686
0.000679687148
0.000679685894
0.000679684899
0.000679684143
0.0006796836
0.000679683248
0.000679683073
0.000679683051
0.000679683167
0.000679683408
0.000679683755
0.000679684196
0.000679684723
0.00067968532
0.000679685979
0.000679686693
0.00067968745
0.00067968824
0.000679689057
0.00067968989
0.000679690747
0.000679691159
0.000679691137
0.000679691212
0.000679691382
0.00067969163
0.000679691943
0.000679692311
0.00067969273
0.00067969319
0.000679693685
0.000679694215
0.00067969477
0.000679695347
0.000679695946
0.000679696559
0.000679697185
0.000679697823
0.000679698467
0.000679699117
0.000679699769
0.000679700425
0.000679701078
0.000679701732
0.00067970238
0.000679703023
0.000679703659
0.000679704291
0.000679704913
0.000679705525
0.00067970613
0.000679706724
0.000679707305
0.000679707879
0.000679708439
0.000679708986
0.000679709524
0.000679710047
0.000679710557
0.000679711053
0.000679711538
0.000679712007
0.000679712462
0.000679712905
0.000679713332
0.000679713744
0.000679714143
0.000679714529
0.000679714889
0.000679729075
0.000679680856
0.000679691401
0.000679690247
0.000679691191
0.000679694036
0.000679698337
0.000679703583
0.000679709357
0.000679715298
0.000679719622
0.000679715555
0.000679711223
0.000679707476
0.000679705179
0.000679704961
0.000679707098
0.000679711472
0.000679709613
0.000679704877
0.000679701759
0.000679700608
0.000679701521
0.000679704365
0.000679708844
0.000679714556
0.000679721026
0.00067972774
0.000679734146
0.000679739676
0.000679743788
0.000679746056
0.000679746267
0.000679744517
0.000679741239
0.00067973716
0.000679733178
0.000679730176
0.000679728829
0.000679729471
0.000679732049
0.000679736197
0.000679741388
0.000679747107
0.000679752987
0.00067975886
0.000679764735
0.000679770722
0.000679776951
0.000679783517
0.000679790461
0.000679797781
0.000679805457
0.000679813464
0.000679821782
0.0006798304
0.000679839304
0.000679848478
0.0006798579
0.000679867544
0.000679877377
0.000679887365
0.000679897468
0.000679907646
0.000679917857
0.000679928052
0.000679938185
0.000679948212
0.000679958079
0.000679967736
0.000679977139
0.000679986233
0.000679994966
0.000680003294
0.000680011163
0.000680018522
0.000680025328
0.000680031528
0.000680037089
0.000680037873
0.000680031843
0.000680024976
0.000680017289
0.000680008803
0.000679999556
0.000679989584
0.000679978942
0.000679967682
0.000679955876
0.000679943593
0.000679930913
0.000679917921
0.000679904707
0.00067989136
0.000679877972
0.000679864635
0.000679851436
0.000679838456
0.00067982578
0.000679813474
0.000679801603
0.000679790225
0.000679779383
0.000679769116
0.000679759449
0.000679750407
0.000679741995
0.000679734219
0.000679727073
0.000679720546
0.000679714621
0.000679709282
0.000679704501
0.00067970025
0.000679696505
0.000679693232
0.000679690401
0.000679687983
0.000679685946
0.000679684258
0.000679682896
0.000679681826
0.000679681023
0.000679680459
0.000679680113
0.00067967996
0.000679679978
0.00067968015
0.000679680454
0.000679680874
0.000679681398
0.000679682007
0.00067968269
0.00067968344
0.000679684242
0.000679685087
0.000679685971
0.000679686882
0.000679687813
0.000679688763
0.000679689728
0.000679690392
0.000679690348
0.000679690328
0.000679690402
0.000679690571
0.000679690821
0.000679691141
0.000679691519
0.000679691949
0.000679692419
0.000679692923
0.000679693461
0.000679694023
0.000679694608
0.000679695215
0.000679695839
0.000679696475
0.000679697125
0.000679697784
0.000679698448
0.000679699115
0.000679699787
0.000679700456
0.000679701126
0.000679701791
0.000679702451
0.000679703104
0.000679703752
0.00067970439
0.000679705018
0.000679705639
0.000679706249
0.000679706846
0.000679707436
0.000679708012
0.000679708574
0.000679709127
0.000679709666
0.000679710192
0.000679710703
0.000679711204
0.000679711689
0.000679712159
0.000679712618
0.000679713061
0.000679713488
0.000679713904
0.000679714306
0.00067971468
0.000679728883
0.000679680156
0.000679689513
0.000679687464
0.000679687895
0.000679690636
0.000679695197
0.000679700989
0.000679707524
0.000679714378
0.000679720797
0.000679716155
0.000679710624
0.000679705808
0.000679702738
0.00067970216
0.000679704385
0.000679709244
0.000679706996
0.000679700963
0.000679696791
0.000679694929
0.000679695502
0.000679698357
0.000679703154
0.000679709428
0.000679716626
0.000679724154
0.000679731367
0.000679737601
0.000679742206
0.000679744651
0.000679744639
0.000679742223
0.000679737872
0.000679732427
0.000679726956
0.000679722533
0.000679719995
0.000679719776
0.000679721844
0.00067972578
0.000679730958
0.000679736753
0.000679742707
0.000679748606
0.000679754454
0.000679760382
0.000679766552
0.000679773086
0.000679780042
0.000679787427
0.000679795218
0.00067980339
0.000679811925
0.000679820812
0.000679830039
0.000679839592
0.00067984945
0.000679859585
0.000679869964
0.00067988055
0.000679891303
0.000679902178
0.000679913131
0.000679924111
0.000679935066
0.000679945948
0.0006799567
0.000679967265
0.000679977595
0.000679987629
0.000679997313
0.000680006597
0.000680015425
0.000680023745
0.000680031509
0.000680038664
0.000680045149
0.000680045806
0.000680039003
0.000680031306
0.000680022739
0.000680013323
0.000680003095
0.000679992098
0.00067998039
0.00067996803
0.000679955098
0.00067994167
0.000679927838
0.000679913698
0.000679899354
0.000679884907
0.000679870461
0.000679856123
0.000679841989
0.000679828153
0.000679814707
0.000679801726
0.000679789279
0.00067977743
0.000679766223
0.000679755695
0.000679745871
0.00067973677
0.000679728392
0.000679720739
0.000679713794
0.000679707541
0.000679701954
0.000679697007
0.000679692664
0.000679688889
0.00067968565
0.000679682905
0.000679680616
0.000679678749
0.000679677265
0.000679676128
0.000679675308
0.00067967477
0.000679674483
0.000679674419
0.000679674555
0.000679674862
0.000679675318
0.000679675906
0.000679676605
0.000679677397
0.000679678271
0.00067967921
0.000679680203
0.000679681242
0.000679682314
0.00067968341
0.000679684528
0.000679685656
0.000679686788
0.000679687921
0.000679688933
0.000679689044
0.000679688961
0.000679688986
0.000679689102
0.000679689306
0.000679689586
0.000679689933
0.000679690338
0.000679690799
0.000679691304
0.000679691847
0.000679692426
0.000679693031
0.000679693658
0.000679694307
0.000679694969
0.000679695642
0.000679696328
0.000679697019
0.000679697714
0.000679698411
0.000679699111
0.000679699808
0.000679700504
0.000679701195
0.00067970188
0.000679702557
0.00067970323
0.000679703892
0.000679704544
0.000679705188
0.000679705821
0.00067970644
0.00067970705
0.000679707647
0.00067970823
0.000679708802
0.00067970936
0.000679709904
0.000679710433
0.000679710951
0.000679711453
0.00067971194
0.000679712415
0.000679712875
0.000679713319
0.00067971375
0.00067971417
0.000679714561
0.000679728794
0.000679679496
0.000679687673
0.000679684689
0.000679684497
0.000679686967
0.000679691597
0.000679697759
0.000679704932
0.000679712659
0.000679720406
0.000679716136
0.000679709575
0.00067970398
0.000679700524
0.000679700024
0.000679702776
0.000679708543
0.000679706431
0.000679699019
0.00067969353
0.000679690554
0.000679690314
0.000679692707
0.000679697398
0.000679703898
0.000679711614
0.000679719887
0.000679727985
0.000679735126
0.000679740521
0.000679743491
0.000679743618
0.000679740889
0.00067973577
0.000679729177
0.000679722319
0.00067971645
0.000679712593
0.000679711319
0.000679712657
0.000679716171
0.000679721154
0.000679726877
0.00067973279
0.000679738624
0.000679744367
0.000679750165
0.000679756208
0.000679762646
0.000679769553
0.00067977694
0.000679784789
0.000679793071
0.000679801769
0.000679810873
0.000679820373
0.000679830257
0.000679840504
0.000679851086
0.000679861969
0.000679873113
0.000679884475
0.000679896007
0.00067990766
0.00067991938
0.00067993111
0.000679942798
0.000679954383
0.000679965808
0.000679977019
0.000679987957
0.000679998564
0.000680008788
0.000680018568
0.000680027849
0.000680036578
0.000680044696
0.000680052149
0.000680052924
0.000680045344
0.000680036813
0.000680027352
0.000680016987
0.000680005757
0.000679993711
0.000679980912
0.000679967427
0.000679953343
0.000679938748
0.000679923744
0.000679908438
0.000679892949
0.00067987739
0.000679861879
0.000679846539
0.000679831476
0.000679816799
0.000679802608
0.000679788987
0.000679776011
0.000679763747
0.00067975224
0.000679741525
0.000679731626
0.000679722554
0.000679714304
0.000679706869
0.000679700224
0.000679694343
0.000679689188
0.000679684725
0.000679680908
0.000679677692
0.000679675035
0.000679672886
0.000679671202
0.000679669941
0.000679669058
0.000679668511
0.000679668268
0.000679668287
0.000679668539
0.00067966899
0.000679669617
0.000679670391
0.000679671288
0.000679672293
0.000679673382
0.000679674539
0.000679675753
0.000679677007
0.000679678289
0.000679679594
0.000679680909
0.000679682227
0.000679683544
0.000679684852
0.000679686145
0.000679687433
0.000679687967
0.00067968781
0.000679687762
0.000679687821
0.000679687972
0.000679688211
0.000679688525
0.000679688906
0.000679689344
0.000679689834
0.000679690366
0.000679690933
0.000679691534
0.000679692162
0.000679692812
0.000679693484
0.000679694171
0.000679694869
0.000679695579
0.000679696296
0.000679697016
0.000679697738
0.000679698463
0.000679699183
0.000679699902
0.000679700616
0.000679701323
0.000679702021
0.000679702714
0.000679703397
0.000679704067
0.00067970473
0.000679705381
0.000679706018
0.000679706646
0.00067970726
0.00067970786
0.00067970845
0.000679709024
0.000679709585
0.000679710131
0.000679710665
0.000679711184
0.000679711687
0.000679712179
0.000679712654
0.000679713114
0.000679713562
0.000679713997
0.000679714402
0.000679728649
0.000679678829
0.000679685819
0.000679681911
0.00067968114
0.000679683415
0.000679688201
0.000679694816
0.000679702681
0.000679711285
0.000679719982
0.000679716116
0.0006797084
0.000679701843
0.000679697787
0.000679697154
0.00067970026
0.00067970679
0.000679704955
0.000679696185
0.000679689489
0.000679685569
0.000679684717
0.00067968685
0.000679691619
0.000679698495
0.000679706825
0.000679715877
0.000679724832
0.000679732803
0.00067973888
0.000679742257
0.0006797424
0.000679739221
0.000679733186
0.000679725299
0.000679716931
0.000679709531
0.000679704304
0.000679701952
0.000679702559
0.000679705661
0.000679710466
0.000679716136
0.000679722027
0.000679727812
0.000679733462
0.00067973914
0.000679745064
0.000679751414
0.000679758282
0.000679765689
0.000679773618
0.000679782042
0.000679790944
0.000679800314
0.000679810146
0.00067982043
0.000679831145
0.000679842262
0.000679853746
0.000679865554
0.00067987764
0.000679889953
0.00067990244
0.000679915041
0.000679927697
0.000679940351
0.000679952934
0.000679965384
0.000679977642
0.000679989641
0.00068000132
0.000680012622
0.000680023483
0.000680033846
0.000680043654
0.000680052845
0.000680061355
0.000680062562
0.000680054183
0.00068004478
0.000680034376
0.000680022996
0.000680010681
0.00067999748
0.000679983463
0.000679968701
0.000679953293
0.000679937337
0.00067992095
0.000679904257
0.000679887391
0.000679870486
0.000679853678
0.000679837106
0.000679820897
0.00067980517
0.000679790042
0.000679775605
0.000679761943
0.000679749127
0.000679737202
0.000679726205
0.000679716152
0.000679707052
0.000679698889
0.000679691648
0.000679685292
0.000679679783
0.000679675073
0.000679671117
0.000679667855
0.000679665232
0.000679663197
0.00067966169
0.000679660657
0.00067966005
0.000679659816
0.000679659909
0.000679660292
0.000679660919
0.000679661756
0.00067966277
0.000679663933
0.000679665216
0.000679666594
0.000679668052
0.000679669565
0.000679671119
0.000679672704
0.000679674304
0.000679675908
0.000679677514
0.000679679108
0.000679680685
0.000679682244
0.000679683777
0.000679685278
0.000679686338
0.000679686274
0.000679686178
0.000679686192
0.000679686312
0.000679686521
0.000679686815
0.000679687181
0.000679687612
0.0006796881
0.00067968864
0.000679689222
0.000679689839
0.000679690489
0.000679691164
0.000679691859
0.000679692574
0.000679693301
0.000679694037
0.000679694785
0.000679695535
0.000679696289
0.000679697043
0.000679697798
0.000679698547
0.000679699295
0.000679700036
0.00067970077
0.000679701495
0.000679702214
0.000679702921
0.000679703617
0.000679704304
0.000679704977
0.000679705637
0.000679706287
0.000679706922
0.000679707542
0.000679708151
0.000679708744
0.000679709323
0.000679709887
0.000679710439
0.000679710974
0.000679711494
0.000679712002
0.000679712494
0.00067971297
0.000679713434
0.000679713886
0.000679714307
0.000679728584
0.000679678153
0.000679683941
0.000679679081
0.000679677691
0.000679679723
0.000679684629
0.000679691674
0.000679700236
0.000679709765
0.000679719572
0.000679716045
0.00067970716
0.000679699689
0.000679695127
0.00067969448
0.000679698053
0.000679705441
0.000679704195
0.000679693995
0.000679685966
0.00067968095
0.000679679326
0.000679681053
0.000679685783
0.000679692959
0.000679701876
0.000679711727
0.000679721598
0.000679730481
0.000679737326
0.000679741186
0.000679741409
0.000679737844
0.000679730959
0.00067972183
0.000679711972
0.00067970302
0.000679696366
0.000679692854
0.000679692634
0.000679695225
0.000679699757
0.000679705287
0.00067971108
0.000679716746
0.000679722243
0.000679727747
0.000679733507
0.00067973973
0.000679746528
0.00067975393
0.000679761921
0.000679770475
0.000679779574
0.000679789212
0.000679799385
0.000679810084
0.000679821288
0.000679832969
0.000679845087
0.000679857598
0.000679870449
0.000679883586
0.000679896947
0.000679910467
0.00067992408
0.000679937721
0.00067995132
0.000679964809
0.000679978126
0.000679991202
0.000680003975
0.000680016385
0.000680028366
0.000680039855
0.000680050795
0.000680061119
0.00068007076
0.000680072792
0.000680063606
0.000680053311
0.000680041931
0.00068002949
0.000680016029
0.000680001602
0.000679986283
0.000679970152
0.000679953315
0.000679935887
0.000679917998
0.000679899791
0.000679881419
0.000679863038
0.000679844805
0.000679826881
0.000679809412
0.000679792539
0.00067977639
0.000679761074
0.00067974668
0.000679733286
0.00067972094
0.000679709673
0.0006796995
0.000679690418
0.000679682403
0.000679675426
0.000679669439
0.00067966439
0.000679660217
0.000679656858
0.000679654244
0.000679652305
0.000679650979
0.000679650195
0.00067964989
0.000679650008
0.00067965049
0.000679651282
0.000679652343
0.000679653624
0.000679655087
0.000679656697
0.000679658426
0.000679660244
0.000679662126
0.000679664056
0.000679666013
0.000679667979
0.000679669947
0.000679671901
0.000679673831
0.000679675734
0.0006796776
0.000679679423
0.000679681204
0.000679682933
0.000679684495
0.000679684748
0.000679684595
0.000679684566
0.000679684648
0.000679684832
0.000679685104
0.000679685459
0.000679685882
0.000679686369
0.000679686907
0.000679687496
0.000679688124
0.000679688785
0.000679689478
0.000679690194
0.00067969093
0.000679691684
0.000679692449
0.000679693223
0.000679694006
0.000679694791
0.000679695579
0.000679696364
0.00067969715
0.000679697929
0.000679698706
0.000679699474
0.000679700234
0.000679700984
0.000679701726
0.000679702456
0.000679703173
0.00067970388
0.000679704574
0.000679705254
0.000679705923
0.000679706577
0.000679707215
0.000679707843
0.000679708454
0.000679709051
0.000679709632
0.000679710201
0.000679710754
0.00067971129
0.000679711815
0.000679712323
0.000679712815
0.000679713295
0.000679713762
0.000679714195
0.000679728486
0.000679677468
0.000679682035
0.000679676215
0.000679674208
0.000679676011
0.000679681056
0.000679688559
0.000679697849
0.000679708322
0.000679719201
0.000679715851
0.000679705754
0.000679697306
0.000679692169
0.000679691444
0.000679695444
0.000679703691
0.000679703279
0.00067969166
0.000679682328
0.000679676248
0.000679673885
0.000679675239
0.00067967996
0.000679687458
0.000679696973
0.000679707626
0.000679718411
0.000679728204
0.000679735823
0.000679740175
0.000679740483
0.000679736507
0.00067972871
0.000679718257
0.000679706821
0.000679696234
0.00067968808
0.000679683346
0.000679682248
0.000679684287
0.000679688514
0.000679693879
0.000679699547
0.000679705071
0.000679710387
0.000679715688
0.000679721254
0.000679727321
0.000679734023
0.000679741399
0.000679749439
0.000679758117
0.000679767418
0.000679777338
0.000679787876
0.000679799024
0.000679810764
0.000679823063
0.000679835881
0.000679849168
0.000679862868
0.000679876919
0.000679891255
0.000679905804
0.000679920495
0.000679935256
0.000679950008
0.000679964678
0.000679979196
0.000679993488
0.000680007485
0.000680021126
0.000680034341
0.000680047067
0.000680059243
0.000680070798
0.000680081662
0.000680084994
0.000680074977
0.000680063761
0.000680051361
0.000680037798
0.000680023111
0.000680007355
0.000679990606
0.000679972952
0.00067995451
0.00067993541
0.000679915803
0.000679895852
0.000679875738
0.000679855642
0.000679835749
0.000679816247
0.000679797308
0.000679779095
0.000679761756
0.000679745413
0.000679730169
0.000679716105
0.000679703269
0.000679691694
0.000679681382
0.000679672323
0.000679664479
0.000679657807
0.000679652242
0.000679647714
0.000679644146
0.000679641461
0.000679639571
0.000679638394
0.000679637854
0.000679637868
0.000679638364
0.000679639277
0.000679640538
0.000679642091
0.000679643886
0.000679645873
0.000679648011
0.000679650262
0.000679652597
0.000679654985
0.000679657401
0.000679659829
0.000679662247
0.000679664641
0.000679667004
0.000679669323
0.00067967159
0.000679673804
0.000679675956
0.000679678043
0.000679680067
0.000679682022
0.000679682869
0.00067968268
0.000679682625
0.000679682689
0.000679682861
0.000679683131
0.000679683485
0.000679683918
0.000679684416
0.000679684974
0.000679685582
0.000679686236
0.000679686927
0.000679687647
0.000679688397
0.000679689166
0.000679689952
0.000679690754
0.000679691565
0.000679692382
0.000679693206
0.000679694031
0.000679694856
0.000679695677
0.000679696496
0.000679697308
0.000679698116
0.000679698914
0.000679699703
0.000679700481
0.000679701251
0.000679702007
0.00067970275
0.000679703483
0.000679704201
0.000679704903
0.000679705594
0.000679706269
0.000679706928
0.000679707575
0.000679708205
0.000679708821
0.000679709419
0.000679710005
0.000679710575
0.000679711128
0.000679711669
0.000679712193
0.000679712701
0.000679713196
0.000679713679
0.000679714128
0.000679728447
0.000679676773
0.000679680098
0.000679673299
0.000679670661
0.000679672227
0.000679677415
0.000679685392
0.000679695435
0.000679706892
0.00067971891
0.000679715599
0.000679704257
0.000679694826
0.000679689132
0.000679688366
0.000679692837
0.000679701969
0.000679702619
0.000679689524
0.000679678824
0.000679671623
0.000679668477
0.000679669425
0.000679674122
0.000679681949
0.000679692092
0.000679703593
0.000679715339
0.000679726082
0.000679734493
0.000679739338
0.000679739718
0.000679735326
0.000679726621
0.000679714843
0.000679701809
0.000679689547
0.000679679834
0.000679673807
0.000679671753
0.000679673163
0.000679677009
0.000679682135
0.000679687611
0.000679692927
0.000679698001
0.000679703041
0.00067970836
0.000679714224
0.00067972079
0.00067972811
0.000679736176
0.000679744965
0.000679754466
0.000679764677
0.0006797756
0.000679787229
0.000679799546
0.000679812518
0.0006798261
0.000679840236
0.000679854865
0.000679869916
0.000679885313
0.000679900977
0.000679916823
0.000679932774
0.000679948741
0.000679964646
0.000679980415
0.000679995971
0.000680011243
0.000680026168
0.000680040676
0.000680054703
0.000680068187
0.000680081056
0.000680093238
0.000680098454
0.000680087609
0.000680075459
0.000680062012
0.000680047281
0.000680031303
0.00068001413
0.00067999584
0.000679976529
0.000679956327
0.000679935378
0.000679913856
0.000679891951
0.000679869874
0.000679847839
0.000679826064
0.000679804773
0.000679784167
0.000679764438
0.000679745758
0.000679728269
0.000679712084
0.000679697292
0.000679683941
0.000679672059
0.000679661638
0.000679652656
0.000679645056
0.000679638777
0.000679633734
0.000679629837
0.000679626989
0.000679625092
0.000679624042
0.00067962374
0.000679624094
0.000679625009
0.0006796264
0.000679628194
0.000679630315
0.000679632699
0.000679635292
0.00067963804
0.0006796409
0.000679643832
0.000679646807
0.000679649794
0.00067965277
0.000679655718
0.00067965862
0.000679661463
0.00067966424
0.000679666939
0.000679669554
0.000679672084
0.000679674524
0.000679676872
0.000679679131
0.000679680611
0.000679680606
0.000679680528
0.000679680579
0.000679680746
0.000679681017
0.000679681382
0.000679681826
0.000679682345
0.000679682924
0.000679683558
0.000679684237
0.00067968496
0.000679685715
0.000679686497
0.000679687306
0.000679688132
0.000679688971
0.000679689824
0.000679690683
0.000679691546
0.000679692414
0.000679693281
0.000679694145
0.000679695004
0.000679695859
0.000679696705
0.000679697545
0.000679698374
0.000679699192
0.000679699997
0.000679700793
0.000679701574
0.000679702341
0.000679703096
0.000679703836
0.000679704559
0.000679705271
0.000679705966
0.000679706644
0.00067970731
0.00067970796
0.000679708593
0.00067970921
0.000679709813
0.0006797104
0.00067971097
0.000679711527
0.000679712067
0.000679712591
0.000679713102
0.0006797136
0.000679714061
0.000679728397
0.000679676065
0.000679678125
0.000679670329
0.000679667049
0.000679668379
0.000679673721
0.000679682194
0.000679693023
0.000679705499
0.00067971869
0.000679715264
0.000679702639
0.000679692189
0.00067968591
0.000679685082
0.000679690013
0.00067970004
0.000679702011
0.00067968744
0.00067967537
0.000679667041
0.000679663103
0.000679663643
0.000679668318
0.00067967648
0.000679687256
0.000679699609
0.000679712327
0.000679724037
0.000679733267
0.000679738633
0.000679738552
0.000679734292
0.000679724638
0.000679711472
0.000679696771
0.000679682759
0.000679671413
0.000679664019
0.00067966094
0.000679661656
0.000679665062
0.000679669896
0.000679675127
0.000679680182
0.00067968496
0.000679689684
0.0006796947
0.000679700308
0.000679706689
0.000679713911
0.00067972197
0.00067973085
0.00067974054
0.000679751044
0.000679762367
0.000679774507
0.000679787444
0.000679801144
0.000679815557
0.000679830621
0.000679846267
0.000679862413
0.000679878977
0.000679895866
0.000679912988
0.000679930253
0.000679947566
0.000679964838
0.000679981988
0.000679998933
0.0006800156
0.000680031922
0.000680047831
0.000680063263
0.000680078159
0.000680092447
0.000680106053
0.000680113863
0.000680102187
0.000680089087
0.000680074558
0.000680058605
0.000680041254
0.000680022551
0.000680002577
0.000679981432
0.000679959258
0.00067993622
0.000679912518
0.000679888375
0.00067986404
0.000679839766
0.000679815816
0.000679792455
0.000679769923
0.000679748449
0.000679728233
0.000679709439
0.000679692195
0.000679676596
0.000679662691
0.000679650498
0.000679639998
0.000679631149
0.000679623874
0.000679618087
0.000679613679
0.000679610535
0.000679608532
0.000679607552
0.000679607468
0.000679608162
0.000679609526
0.00067961145
0.000679613838
0.000679616605
0.000679619669
0.000679622959
0.000679626418
0.000679629986
0.000679633621
0.000679637281
0.000679640937
0.000679644557
0.00067964812
0.00067965161
0.000679655011
0.00067965831
0.000679661505
0.000679664586
0.00067966755
0.000679670399
0.000679673129
0.000679675742
0.000679677796
0.000679678165
0.00067967808
0.000679678138
0.00067967832
0.000679678613
0.000679679003
0.000679679481
0.000679680032
0.000679680651
0.000679681327
0.000679682051
0.000679682816
0.00067968362
0.00067968445
0.000679685304
0.000679686179
0.000679687068
0.000679687966
0.000679688875
0.000679689788
0.0006796907
0.000679691615
0.000679692526
0.000679693432
0.000679694331
0.000679695224
0.000679696106
0.00067969698
0.000679697841
0.000679698691
0.000679699526
0.000679700351
0.00067970116
0.000679701953
0.000679702734
0.000679703498
0.000679704245
0.000679704979
0.000679705695
0.000679706394
0.00067970708
0.000679707748
0.000679708399
0.000679709034
0.000679709654
0.000679710258
0.000679710844
0.000679711417
0.000679711973
0.000679712512
0.000679713038
0.000679713551
0.000679714027
0.000679728388
0.000679675343
0.000679676113
0.000679667299
0.000679663366
0.000679664458
0.000679669963
0.000679678956
0.000679690605
0.00067970414
0.000679718546
0.000679714848
0.000679700905
0.000679689418
0.000679682548
0.000679681669
0.00067968708
0.000679698029
0.000679701549
0.000679685463
0.000679671984
0.000679662498
0.000679657746
0.000679657868
0.000679662526
0.000679671042
0.000679682489
0.000679695742
0.000679709481
0.000679722198
0.000679732269
0.000679738148
0.000679735358
0.000679733443
0.000679722826
0.000679708247
0.000679691835
0.000679676015
0.000679662962
0.000679654121
0.000679649933
0.000679649872
0.000679652759
0.000679657222
0.000679662132
0.00067966685
0.000679671254
0.000679675586
0.000679680224
0.000679685507
0.000679691642
0.000679698712
0.000679706725
0.000679715666
0.00067972553
0.000679736328
0.000679748068
0.000679760752