/*--------------------------------*- C++ -*----------------------------------*\
| =========                 |                                                 |
| \\      /  F ield         | OpenFOAM: The Open Source CFD Toolbox           |
|  \\    /   O peration     | Version:  v2012                                 |
|   \\  /    A nd           | Website:  www.openfoam.com                      |
|    \\/     M anipulation  |                                                 |
\*---------------------------------------------------------------------------*/
FoamFile
{
    version     2.0;
    format      ascii;
    class       volVectorField;
    location    "2.24";
    object      U;
}
// * * * * * * * * * * * * * * * * * * * * * * * * * * * * * * * * * * * * * //

dimensions      [0 1 -1 0 0 0 0];


internalField   nonuniform List<vector> 
28416
(
(0.0999975811 1.39402906e-05 0)
(0.0999810772 3.86259831e-05 0)
(0.0999516096 5.78239356e-05 0)
(0.0999131976 6.87270328e-05 0)
(0.0998710203 6.9886138e-05 0)
(0.099829213 6.19546738e-05 0)
(0.0997908847 4.64329736e-05 0)
(0.0997590085 2.44271139e-05 0)
(0.0997365771 -3.56507173e-06 0)
(0.0997226151 -3.70767242e-05 0)
(0.0997156105 -7.05350224e-05 0)
(0.0997169012 -9.75384481e-05 0)
(0.0997257428 -0.000112856834 0)
(0.0997390399 -0.000112617882 0)
(0.0997527854 -9.5456058e-05 0)
(0.0997627799 -6.29738806e-05 0)
(0.0997663464 -1.91150701e-05 0)
(0.0997609721 2.94688404e-05 0)
(0.099742828 7.72136296e-05 0)
(0.0997114874 0.000120781208 0)
(0.0996702375 0.000156744538 0)
(0.0996222185 0.000182341948 0)
(0.0995701526 0.000196229484 0)
(0.0995168547 0.000198344808 0)
(0.0994650139 0.000189714409 0)
(0.0994170057 0.000172325213 0)
(0.0993748378 0.000148982414 0)
(0.0993399824 0.000123191427 0)
(0.0993130932 9.90283669e-05 0)
(0.0992937137 8.08681674e-05 0)
(0.0992800801 7.28827414e-05 0)
(0.0992691724 7.83535345e-05 0)
(0.0992571333 9.89371688e-05 0)
(0.0992399419 0.000134081447 0)
(0.0992141039 0.000180879688 0)
(0.099177239 0.000234558143 0)
(0.0991284639 0.000289508274 0)
(0.0990684479 0.000340560624 0)
(0.0989990947 0.000384100876 0)
(0.098922936 0.000418683662 0)
(0.0988424497 0.000444974111 0)
(0.0987595208 0.000465091749 0)
(0.0986751867 0.000481651379 0)
(0.0985896893 0.000496879094 0)
(0.0985027449 0.000512093908 0)
(0.0984138843 0.000527645233 0)
(0.0983227264 0.000543194523 0)
(0.098229113 0.000558122181 0)
(0.0981331114 0.000571858436 0)
(0.0980349404 0.00058403881 0)
(0.0979348838 0.000594497335 0)
(0.0978332337 0.000603176082 0)
(0.0977302733 0.000610032607 0)
(0.0976262861 0.000614990126 0)
(0.0975215728 0.000617933286 0)
(0.0974164638 0.000618728809 0)
(0.0973113221 0.000617248576 0)
(0.0972065404 0.000613383305 0)
(0.0971025358 0.000607046121 0)
(0.0969997444 0.000598170737 0)
(0.096898618 0.000586708822 0)
(0.0967996198 0.000572628661 0)
(0.0967032211 0.000555915071 0)
(0.0966098969 0.000536569925 0)
(0.0965201208 0.000514612935 0)
(0.0964343608 0.000490082807 0)
(0.0963530751 0.00046303896 0)
(0.0962767099 0.000433563691 0)
(0.0962056995 0.000401764041 0)
(0.0961404677 0.000367772413 0)
(0.0960814309 0.000331744854 0)
(0.0960290008 0.000293857147 0)
(0.0959835841 0.000254298254 0)
(0.0959455802 0.000213261723 0)
(0.0959153829 0.000170938724 0)
(0.0958934055 0.000127504523 0)
(0.0958799778 8.30393956e-05 0)
(0.0958749225 3.76232239e-05 0)
(0.0958780454 -8.12663015e-06 0)
(0.0958903443 -5.36302741e-05 0)
(0.0959125845 -9.91531439e-05 0)
(0.0959444222 -0.000144652188 0)
(0.0959856614 -0.000189842344 0)
(0.0960362905 -0.000234461372 0)
(0.0960961768 -0.000278254265 0)
(0.096165081 -0.000320944545 0)
(0.0962427075 -0.000362245504 0)
(0.0963286893 -0.000401864211 0)
(0.096422579 -0.000439500069 0)
(0.0965238583 -0.000474848768 0)
(0.0966319481 -0.000507611606 0)
(0.0967462156 -0.000537507511 0)
(0.0968659814 -0.000564285585 0)
(0.0969905256 -0.000587735873 0)
(0.097119095 -0.000607696648 0)
(0.0972509092 -0.00062405781 0)
(0.0973851698 -0.000636761249 0)
(0.0975210707 -0.000645799406 0)
(0.0976578092 -0.000651212941 0)
(0.0977945982 -0.000653087966 0)
(0.0979306773 -0.000651552813 0)
(0.0980653234 -0.000646774188 0)
(0.0981978591 -0.000638952585 0)
(0.0983276602 -0.000628316993 0)
(0.0984541614 -0.000615119062 0)
(0.0985768601 -0.000599626981 0)
(0.0986953192 -0.000582119305 0)
(0.0988091676 -0.000562879003 0)
(0.0989181006 -0.000542187932 0)
(0.0990218778 -0.000520321911 0)
(0.0991203206 -0.000497546491 0)
(0.0992133091 -0.000474113457 0)
(0.0993007771 -0.000450258039 0)
(0.0993827082 -0.000426196731 0)
(0.0994591294 -0.000402125699 0)
(0.0995301057 -0.000378219599 0)
(0.0995957327 -0.00035463045 0)
(0.0996561338 -0.000331485539 0)
(0.0997114677 -0.000308887541 0)
(0.0997619283 -0.000286920909 0)
(0.0998077317 -0.000265655471 0)
(0.0998491067 -0.000245148 0)
(0.0998862884 -0.000225443081 0)
(0.0999195146 -0.000206573889 0)
(0.0999490231 -0.000188563106 0)
(0.0999750491 -0.000171424 0)
(0.0999978241 -0.000155161643 0)
(0.100017573 -0.000139774208 0)
(0.100034512 -0.000125253785 0)
(0.100048847 -0.000111585812 0)
(0.100060777 -9.87503204e-05 0)
(0.100070487 -8.67232373e-05 0)
(0.100078156 -7.54762341e-05 0)
(0.100083952 -6.49760042e-05 0)
(0.100088032 -5.51837824e-05 0)
(0.100090552 -4.60556959e-05 0)
(0.100091664 -3.75441285e-05 0)
(0.100091521 -2.95994894e-05 0)
(0.10009028 -2.21695338e-05 0)
(0.100088121 -1.51989932e-05 0)
(0.100085269 -8.66266174e-06 0)
(0.100082109 -2.70039547e-06 0)
(0.100078493 2.33657723e-06 0)
(0.100073992 6.67066393e-06 0)
(0.100068577 1.04791995e-05 0)
(0.100062353 1.39215319e-05 0)
(0.100055533 1.70939537e-05 0)
(0.10004829 2.00289251e-05 0)
(0.100040728 2.27386506e-05 0)
(0.100032921 2.52282459e-05 0)
(0.100024934 2.74969506e-05 0)
(0.10001682 2.95408111e-05 0)
(0.10000862 3.13568839e-05 0)
(0.100000361 3.29469096e-05 0)
(0.099992064 3.43182049e-05 0)
(0.0999837466 3.54825185e-05 0)
(0.0999754258 3.64545225e-05 0)
(0.0999671178 3.72504636e-05 0)
(0.0999588389 3.78870025e-05 0)
(0.0999506055 3.83802968e-05 0)
(0.099942434 3.87453549e-05 0)
(0.0999343403 3.89956243e-05 0)
(0.0999263394 3.91427783e-05 0)
(0.0999184453 3.9196706e-05 0)
(0.0999106706 3.91656738e-05 0)
(0.0999030263 3.90565721e-05 0)
(0.0998955218 3.88751907e-05 0)
(0.099888165 3.86265072e-05 0)
(0.0998809624 3.83149715e-05 0)
(0.0998739189 3.79447554e-05 0)
(0.0998670385 3.75199456e-05 0)
(0.0998603242 3.70446657e-05 0)
(0.0998537783 3.65231296e-05 0)
(0.0998474029 3.59596297e-05 0)
(0.0998411994 3.53584829e-05 0)
(0.0998351694 3.4723949e-05 0)
(0.0998293144 3.40601256e-05 0)
(0.0998236358 3.33708348e-05 0)
(0.0998181353 3.26595383e-05 0)
(0.0998128143 3.19293054e-05 0)
(0.0998076745 3.118282e-05 0)
(0.0998027171 3.04223887e-05 0)
(0.0997979443 2.96499887e-05 0)
(0.0997933558 2.88671169e-05 0)
(0.0997889602 2.80754481e-05 0)
(0.0997847372 2.72738604e-05 0)
(0.0997807688 2.64708037e-05 0)
(0.0997767987 2.56283733e-05 0)
(0.0997737865 2.49051285e-05 0)
(0.0997687471 2.35491852e-05 0)
(0.099998229 2.97077738e-05 0)
(0.0999839638 8.12689186e-05 0)
(0.0999553706 0.000120657843 0)
(0.0999155454 0.000143923873 0)
(0.0998702626 0.000149297283 0)
(0.0998244596 0.000138240819 0)
(0.0997816752 0.00011343849 0)
(0.099744785 7.69018952e-05 0)
(0.0997159209 2.99630439e-05 0)
(0.0996978246 -2.5008568e-05 0)
(0.0996929383 -8.05184417e-05 0)
(0.0997006815 -0.000127393553 0)
(0.0997186052 -0.000156595527 0)
(0.099743 -0.000161337688 0)
(0.0997686879 -0.000139040607 0)
(0.099790042 -9.19996348e-05 0)
(0.0998014749 -2.65581517e-05 0)
(0.09979925 4.78136508e-05 0)
(0.0997822723 0.00012193412 0)
(0.099750621 0.000189119055 0)
(0.0997060512 0.000243856335 0)
(0.0996520018 0.000282269146 0)
(0.0995924306 0.000302652743 0)
(0.0995312741 0.000305143048 0)
(0.0994722224 0.000291295189 0)
(0.0994185173 0.000263860454 0)
(0.0993728144 0.000226708428 0)
(0.0993370183 0.000184855991 0)
(0.0993120161 0.000144450438 0)
(0.0992973651 0.000112441579 0)
(0.0992910758 9.57608912e-05 0)
(0.0992896329 0.000100059265 0)
(0.0992883236 0.000128301597 0)
(0.0992818872 0.000179711452 0)
(0.0992654241 0.000249571347 0)
(0.09923535 0.000330085844 0)
(0.0991900888 0.000412121057 0)
(0.0991302747 0.000487328396 0)
(0.0990583932 0.000549990845 0)
(0.0989779717 0.000598013645 0)
(0.0988925905 0.000632783823 0)
(0.0988050392 0.000658037953 0)
(0.0987168674 0.000678239616 0)
(0.0986284041 0.000697102277 0)
(0.0985391376 0.000716743604 0)
(0.0984482329 0.000737617732 0)
(0.0983549684 0.000759028137 0)
(0.0982589639 0.000779841613 0)
(0.0981601967 0.000799057207 0)
(0.0980588879 0.000816063 0)
(0.0979553613 0.00083060963 0)
(0.0978499477 0.000842641463 0)
(0.0977429522 0.000852128954 0)
(0.0976346668 0.000858979424 0)
(0.0975253987 0.000863029527 0)
(0.0974154905 0.000864081617 0)
(0.0973053271 0.000861944059 0)
(0.0971953306 0.000856454676 0)
(0.0970859525 0.000847486348 0)
(0.0969776661 0.000834943389 0)
(0.0968709607 0.00081875699 0)
(0.0967663377 0.000798883391 0)
(0.0966643064 0.000775304538 0)
(0.0965653803 0.000748029525 0)
(0.0964700725 0.000717095528 0)
(0.0963788919 0.000682567789 0)
(0.0962923403 0.000644538731 0)
(0.0962109097 0.000603126455 0)
(0.0961350812 0.000558472781 0)
(0.0960653234 0.000510740878 0)
(0.0960020908 0.000460112566 0)
(0.0959458234 0.000406785529 0)
(0.0958969423 0.000350969585 0)
(0.0958558481 0.000292884506 0)
(0.0958229166 0.000232756483 0)
(0.0957984371 0.000170807864 0)
(0.0957826371 0.000107235285 0)
(0.095776001 4.23031876e-05 0)
(0.0957790146 -2.34467607e-05 0)
(0.095791695 -8.93984278e-05 0)
(0.0958141289 -0.000155479105 0)
(0.0958465401 -0.000221463968 0)
(0.0958889495 -0.000286954219 0)
(0.0959413042 -0.000351562908 0)
(0.0960034916 -0.000414896575 0)
(0.0960753091 -0.00047652676 0)
(0.0961564707 -0.000536007814 0)
(0.096246607 -0.000592890484 0)
(0.0963452617 -0.000646728206 0)
(0.0964518953 -0.000697086562 0)
(0.0965658922 -0.000743554881 0)
(0.0966865679 -0.00078575714 0)
(0.0968131758 -0.000823361833 0)
(0.0969449156 -0.000856090814 0)
(0.0970809428 -0.000883726827 0)
(0.0972203796 -0.000906119289 0)
(0.0973623269 -0.000923188097 0)
(0.0975058785 -0.000934925257 0)
(0.0976501349 -0.000941394218 0)
(0.0977942176 -0.000942727007 0)
(0.0979372825 -0.000939119433 0)
(0.098078532 -0.000930824676 0)
(0.098217225 -0.000918145634 0)
(0.0983526853 -0.000901426394 0)
(0.0984843077 -0.000881043162 0)
(0.0986115623 -0.000857395021 0)
(0.0987339965 -0.000830894813 0)
(0.0988512354 -0.00080196046 0)
(0.0989629806 -0.000771006962 0)
(0.0990690075 -0.000738439263 0)
(0.099169161 -0.000704646107 0)
(0.0992633514 -0.000669994964 0)
(0.0993515479 -0.000634828026 0)
(0.099433773 -0.000599459156 0)
(0.099510096 -0.000564171725 0)
(0.0995806263 -0.000529217026 0)
(0.0996455081 -0.000494812772 0)
(0.0997049161 -0.000461140732 0)
(0.0997590534 -0.000428347607 0)
(0.099808148 -0.000396553381 0)
(0.0998524445 -0.000365856233 0)
(0.0998921982 -0.000336334771 0)
(0.0999276694 -0.000308049351 0)
(0.0999591194 -0.000281043363 0)
(0.0999868074 -0.000255344729 0)
(0.100010988 -0.000230967509 0)
(0.100031909 -0.000207913453 0)
(0.10004981 -0.000186173334 0)
(0.100064922 -0.000165727688 0)
(0.100077465 -0.00014654673 0)
(0.100087648 -0.000128591784 0)
(0.100095668 -0.000111817239 0)
(0.100101713 -9.61718346e-05 0)
(0.100105962 -8.15995473e-05 0)
(0.100108584 -6.80404145e-05 0)
(0.100109742 -5.54317076e-05 0)
(0.100109593 -4.37099042e-05 0)
(0.100108297 -3.28142812e-05 0)
(0.10010602 -2.26953501e-05 0)
(0.100102908 -1.33311117e-05 0)
(0.100098965 -4.74167017e-06 0)
(0.100094144 3.06663564e-06 0)
(0.100088714 9.83961314e-06 0)
(0.100082854 1.57173967e-05 0)
(0.100076463 2.08589401e-05 0)
(0.100069553 2.54295865e-05 0)
(0.100062191 2.95296261e-05 0)
(0.100054455 3.32059238e-05 0)
(0.100046417 3.64959521e-05 0)
(0.100038139 3.94351585e-05 0)
(0.100029674 4.20530739e-05 0)
(0.100021073 4.437163e-05 0)
(0.100012382 4.64070455e-05 0)
(0.10000364 4.81733477e-05 0)
(0.0999948796 4.9684367e-05 0)
(0.0999861264 5.09543394e-05 0)
(0.0999774028 5.19981857e-05 0)
(0.0999687274 5.28315033e-05 0)
(0.0999601166 5.34702369e-05 0)
(0.0999515851 5.39302239e-05 0)
(0.0999431463 5.42268291e-05 0)
(0.0999348125 5.43747117e-05 0)
(0.0999265951 5.43876074e-05 0)
(0.0999185046 5.42781235e-05 0)
(0.0999105505 5.40576552e-05 0)
(0.0999027412 5.3736427e-05 0)
(0.0998950843 5.3323596e-05 0)
(0.099887586 5.2827379e-05 0)
(0.0998802519 5.22551898e-05 0)
(0.0998730864 5.16137749e-05 0)
(0.0998660931 5.09093365e-05 0)
(0.0998592751 5.01476351e-05 0)
(0.0998526347 4.93340666e-05 0)
(0.0998461738 4.84737127e-05 0)
(0.0998398939 4.75713651e-05 0)
(0.0998337963 4.66315286e-05 0)
(0.099827882 4.56584177e-05 0)
(0.0998221519 4.46559461e-05 0)
(0.0998166067 4.3627698e-05 0)
(0.0998112472 4.25768983e-05 0)
(0.0998060741 4.15063998e-05 0)
(0.0998010879 4.04186609e-05 0)
(0.0997962901 3.9315772e-05 0)
(0.0997916796 3.81992186e-05 0)
(0.0997872641 3.70706125e-05 0)
(0.0997830216 3.59281189e-05 0)
(0.0997790343 3.47809185e-05 0)
(0.0997750309 3.35831817e-05 0)
(0.09977199 3.25332353e-05 0)
(0.0997667838 3.06708769e-05 0)
(0.0999979118 3.69088903e-05 0)
(0.0999826636 0.00010089021 0)
(0.0999537907 0.000149700982 0)
(0.0999144887 0.000179265693 0)
(0.0998700889 0.000187829769 0)
(0.0998251974 0.000177116613 0)
(0.0997832049 0.000150193793 0)
(0.0997469806 0.000109464636 0)
(0.0997192573 5.70106019e-05 0)
(0.0997020712 -3.04370199e-06 0)
(0.0996964255 -6.42756982e-05 0)
(0.099702498 -0.000117781022 0)
(0.0997186913 -0.000153089237 0)
(0.0997411712 -0.000162081743 0)
(0.0997648003 -0.000141349955 0)
(0.0997840917 -9.29270758e-05 0)
(0.0997943789 -2.35406515e-05 0)
(0.0997923958 5.79222572e-05 0)
(0.0997764358 0.000141282275 0)
(0.0997466663 0.000217119806 0)
(0.0997048732 0.00027856271 0)
(0.0996539509 0.000321305287 0)
(0.0995973923 0.000343417373 0)
(0.0995388516 0.000345033152 0)
(0.0994818349 0.000327903934 0)
(0.0994294998 0.000295073386 0)
(0.0993845095 0.000250789756 0)
(0.0993488462 0.000200591867 0)
(0.0993235344 0.0001513475 0)
(0.0993083148 0.000110930819 0)
(0.099301385 8.73172603e-05 0)
(0.0992993604 8.71463782e-05 0)
(0.0992976204 0.000114120613 0)
(0.0992910488 0.00016776917 0)
(0.0992749427 0.000243076374 0)
(0.0992458429 0.000331290658 0)
(0.0992021293 0.000421828834 0)
(0.0991442196 0.000504757776 0)
(0.0990742808 0.00057307967 0)
(0.0989955223 0.00062407333 0)
(0.0989112977 0.000659271462 0)
(0.0988243078 0.000683173533 0)
(0.0987361436 0.000701277553 0)
(0.0986472574 0.000718225541 0)
(0.09855728 0.000736701459 0)
(0.098465488 0.000757302167 0)
(0.0983712167 0.000779158209 0)
(0.0982740922 0.000800832528 0)
(0.0981740674 0.000821051539 0)
(0.0980713315 0.00083904355 0)
(0.0979661853 0.00085451134 0)
(0.0978589506 0.000867415519 0)
(0.0977499359 0.000877754626 0)
(0.0976394441 0.000885445124 0)
(0.0975277967 0.000890308311 0)
(0.0974153519 0.000892116174 0)
(0.0973025113 0.00089064374 0)
(0.097189716 0.000885699955 0)
(0.0970774385 0.000877135123 0)
(0.0969661758 0.000864835958 0)
(0.0968564428 0.000848719136 0)
(0.0967487679 0.000828728237 0)
(0.0966436885 0.000804833817 0)
(0.0965417458 0.000777034484 0)
(0.0964434796 0.000745357478 0)
(0.096349423 0.000709858486 0)
(0.0962600976 0.000670621127 0)
(0.0961760103 0.000627756509 0)
(0.0960976515 0.000581402697 0)
(0.0960254958 0.000531723482 0)
(0.0959600029 0.000478906137 0)
(0.0959016193 0.000423157999 0)
(0.0958507782 0.000364702599 0)
(0.0958078967 0.000303777828 0)
(0.0957733717 0.000240633873 0)
(0.0957475847 0.000175537599 0)
(0.0957309067 0.000108818594 0)
(0.095723512 4.08442906e-05 0)
(0.0957255405 -2.81613117e-05 0)
(0.0957374321 -9.79632826e-05 0)
(0.0957595393 -0.000168160659 0)
(0.0957919396 -0.000238406078 0)
(0.0958346526 -0.00030831739 0)
(0.0958876694 -0.00037746422 0)
(0.0959509007 -0.000445392609 0)
(0.0960241604 -0.000511624942 0)
(0.0961071741 -0.000575664278 0)
(0.0961995796 -0.00063700349 0)
(0.0963009222 -0.00069513323 0)
(0.0964106555 -0.000749551765 0)
(0.0965281454 -0.000799777947 0)
(0.0966526758 -0.000845365702 0)
(0.0967834558 -0.00088591853 0)
(0.0969196291 -0.000921102696 0)
(0.0970602866 -0.000950657839 0)
(0.0972044799 -0.000974404226 0)
(0.0973512368 -0.000992246647 0)
(0.0974995775 -0.00100417533 0)
(0.0976485319 -0.00101026429 0)
(0.0977971546 -0.00101066739 0)
(0.097944541 -0.0010056125 0)
(0.09808984 -0.000995393753 0)
(0.0982322656 -0.000980362397 0)
(0.098371106 -0.000960916475 0)
(0.09850573 -0.000937489871 0)
(0.0986355915 -0.000910541157 0)
(0.098760231 -0.000880542684 0)
(0.0988792755 -0.000847970288 0)
(0.0989924361 -0.000813293936 0)
(0.0990995043 -0.000776969496 0)
(0.0992003471 -0.000739431769 0)
(0.0992949003 -0.000701088854 0)
(0.0993831625 -0.000662317803 0)
(0.0994651875 -0.000623461455 0)
(0.0995410774 -0.00058482637 0)
(0.0996109754 -0.000546681684 0)
(0.0996750597 -0.000509258719 0)
(0.0997335373 -0.00047275149 0)
(0.0997866398 -0.000437319044 0)
(0.0998346182 -0.000403089688 0)
(0.0998777373 -0.000370164696 0)
(0.09991627 -0.000338621095 0)
(0.0999504924 -0.000308513951 0)
(0.09998068 -0.000279878484 0)
(0.100007105 -0.000252732148 0)
(0.100030033 -0.000227076713 0)
(0.100049722 -0.000202900358 0)
(0.100066421 -0.000180179885 0)
(0.100080372 -0.000158883042 0)
(0.100091801 -0.000138971077 0)
(0.100100925 -0.000120399937 0)
(0.100107946 -0.000103120867 0)
(0.100113053 -8.70811808e-05 0)
(0.100116425 -7.22251927e-05 0)
(0.100118227 -5.84955436e-05 0)
(0.100118617 -4.58352041e-05 0)
(0.100117745 -3.41905921e-05 0)
(0.100115747 -2.35162346e-05 0)
(0.100112735 -1.37796917e-05 0)
(0.100108808 -4.95363048e-06 0)
(0.100104157 3.06341915e-06 0)
(0.100098901 1.03520717e-05 0)
(0.100093058 1.70235352e-05 0)
(0.100086674 2.30034165e-05 0)
(0.100079752 2.83195444e-05 0)
(0.100072326 3.30422346e-05 0)
(0.100064475 3.72406883e-05 0)
(0.100056299 4.09712633e-05 0)
(0.100047887 4.42714501e-05 0)
(0.100039306 4.71691657e-05 0)
(0.100030604 4.96921576e-05 0)
(0.10002182 5.18682727e-05 0)
(0.100012984 5.37236691e-05 0)
(0.100004121 5.52831705e-05 0)
(0.0999952521 5.65707332e-05 0)
(0.0999863966 5.76091221e-05 0)
(0.099977573 5.8419566e-05 0)
(0.0999687985 5.9021773e-05 0)
(0.0999600898 5.94342361e-05 0)
(0.0999514625 5.96743044e-05 0)
(0.0999429317 5.97580466e-05 0)
(0.0999345114 5.97000929e-05 0)
(0.0999262143 5.95136143e-05 0)
(0.0999180516 5.92104384e-05 0)
(0.0999100332 5.88011709e-05 0)
(0.0999021675 5.82953018e-05 0)
(0.0998944617 5.77013392e-05 0)
(0.0998869216 5.70269686e-05 0)
(0.099879552 5.6279211e-05 0)
(0.0998723565 5.54645635e-05 0)
(0.0998653378 5.45891121e-05 0)
(0.0998584982 5.36586085e-05 0)
(0.099851839 5.2678511e-05 0)
(0.0998453616 5.1653995e-05 0)
(0.0998390669 5.05899421e-05 0)
(0.0998329557 4.94909188e-05 0)
(0.0998270288 4.83611601e-05 0)
(0.099821287 4.72045534e-05 0)
(0.0998157311 4.60246103e-05 0)
(0.0998103617 4.48244393e-05 0)
(0.0998051796 4.36067321e-05 0)
(0.0998001852 4.23737439e-05 0)
(0.0997953797 4.11273205e-05 0)
(0.0997907615 3.98686896e-05 0)
(0.099786338 3.85991396e-05 0)
(0.0997820867 3.73167868e-05 0)
(0.0997780878 3.60303738e-05 0)
(0.0997740776 3.46947137e-05 0)
(0.0997710237 3.35163917e-05 0)
(0.0997658932 3.14732985e-05 0)
(0.099998061 4.70349715e-05 0)
(0.0999832164 0.000129381254 0)
(0.0999541808 0.000192947025 0)
(0.0999137681 0.000232039841 0)
(0.0998673778 0.000244064035 0)
(0.0998199923 0.000231080495 0)
(0.0997754634 0.00019699541 0)
(0.0997370809 0.000144923157 0)
(0.0997079633 7.74685066e-05 0)
(0.0996907998 -9.52049172e-07 0)
(0.0996868629 -8.19054223e-05 0)
(0.0996961854 -0.00015250104 0)
(0.0997170926 -0.000199628747 0)
(0.0997453669 -0.000212981254 0)
(0.0997752766 -0.0001879833 0)
(0.0998006416 -0.000126974185 0)
(0.0998161219 -3.82420725e-05 0)
(0.0998177098 6.59528613e-05 0)
(0.0998031088 0.000172511983 0)
(0.099772506 0.000269755629 0)
(0.0997281951 0.000348713404 0)
(0.0996736411 0.000403718093 0)
(0.0996128826 0.000432297246 0)
(0.0995501338 0.000434637215 0)
(0.0994894631 0.000412965042 0)
(0.0994345376 0.000371116498 0)
(0.0993884057 0.000314422084 0)
(0.0993532593 0.00024984389 0)
(0.0993301367 0.000186068972 0)
(0.0993186066 0.00013313896 0)
(0.0993165622 0.000101310281 0)
(0.0993202713 9.91966927e-05 0)
(0.0993247321 0.000131652378 0)
(0.0993243091 0.000198128484 0)
(0.0993136544 0.000292222181 0)
(0.0992887429 0.000402761655 0)
(0.0992476489 0.000516261056 0)
(0.099190792 0.000620084861 0)
(0.0991205905 0.000705345478 0)
(0.0990406429 0.000768594454 0)
(0.0989547091 0.000811786596 0)
(0.0988658173 0.000840648974 0)
(0.0987757557 0.000862188882 0)
(0.0986850408 0.000882340209 0)
(0.0985932662 0.00090455579 0)
(0.098499618 0.000929630291 0)
(0.098403331 0.000956478012 0)
(0.0983039494 0.000983271653 0)
(0.0982013737 0.00100837637 0)
(0.0980957662 0.00103078938 0)
(0.0979874184 0.00105011395 0)
(0.0978766517 0.00106628895 0)
(0.0977637788 0.00107930945 0)
(0.0976491108 0.00108907145 0)
(0.097532982 0.00109535183 0)
(0.0974157694 0.00109786439 0)
(0.0972978993 0.00109632546 0)
(0.097179843 0.00109049336 0)
(0.0970621078 0.00108017828 0)
(0.0969452278 0.00106523645 0)
(0.096829757 0.0010455623 0)
(0.0967162631 0.00102108493 0)
(0.0966053223 0.000991768873 0)
(0.0964975138 0.000957616005 0)
(0.0963934151 0.000918666631 0)
(0.0962935985 0.00087499865 0)
(0.0961986277 0.000826724964 0)
(0.0961090559 0.000773989698 0)
(0.096025423 0.000716963898 0)
(0.095948252 0.00065584144 0)
(0.095878046 0.000590835795 0)
(0.0958152852 0.000522177985 0)
(0.0957604248 0.000450115431 0)
(0.0957138953 0.000374911624 0)
(0.0956761048 0.000296847306 0)
(0.0956474317 0.000216219879 0)
(0.0956282235 0.00013333788 0)
(0.095618868 4.85206157e-05 0)
(0.0956197292 -3.77551755e-05 0)
(0.0956310347 -0.000124987197 0)
(0.0956529839 -0.000212770598 0)
(0.0956857576 -0.000300652952 0)
(0.0957294601 -0.000388118753 0)
(0.0957841193 -0.000474616469 0)
(0.0958496809 -0.000559564502 0)
(0.0959259961 -0.000642348051 0)
(0.0960128148 -0.000722326658 0)
(0.0961097802 -0.000798848525 0)
(0.0962164245 -0.000871264681 0)
(0.0963321687 -0.000938943603 0)
(0.0964563265 -0.00100128704 0)
(0.0965881117 -0.00105774574 0)
(0.0967266475 -0.00110783427 0)
(0.0968709795 -0.00115114461 0)
(0.0970200906 -0.00118735815 0)
(0.0971729178 -0.00121625531 0)
(0.0973283708 -0.00123772193 0)
(0.0974853519 -0.00125175211 0)
(0.0976427759 -0.00125844719 0)
(0.0977995892 -0.00125801115 0)
(0.0979547883 -0.0012507427 0)
(0.0981074351 -0.00123702485 0)
(0.0982566705 -0.00121731249 0)
(0.0984017244 -0.00119211855 0)
(0.0985419231 -0.00116199964 0)
(0.0986766927 -0.00112754152 0)
(0.0988055612 -0.00108934502 0)
(0.0989281562 -0.00104801301 0)
(0.0990442019 -0.00100413855 0)
(0.0991535135 -0.000958294651 0)
(0.0992559902 -0.000911025687 0)
(0.0993516075 -0.000862840606 0)
(0.0994404088 -0.000814207805 0)
(0.0995224966 -0.000765551587 0)
(0.0995980235 -0.000717250085 0)
(0.0996671848 -0.00066963446 0)
(0.0997302099 -0.000622989186 0)
(0.0997873556 -0.000577553438 0)
(0.0998389003 -0.000533523629 0)
(0.0998851376 -0.000491056903 0)
(0.0999263711 -0.000450275009 0)
(0.0999629087 -0.000411268031 0)
(0.0999950588 -0.000374097894 0)
(0.100023126 -0.000338801746 0)
(0.100047407 -0.000305395244 0)
(0.100068192 -0.000273875676 0)
(0.100085755 -0.000244224706 0)
(0.100100361 -0.000216410713 0)
(0.100112257 -0.000190390707 0)
(0.100121679 -0.000166111992 0)
(0.100128845 -0.000143513639 0)
(0.100133965 -0.000122528092 0)
(0.100137232 -0.000103082957 0)
(0.100138831 -8.51027025e-05 0)
(0.100138932 -6.85099703e-05 0)
(0.100137695 -5.322633e-05 0)
(0.100135265 -3.91723372e-05 0)
(0.100131776 -2.62674713e-05 0)
(0.100127374 -1.44363934e-05 0)
(0.100122286 -3.65709885e-06 0)
(0.100116575 6.10106478e-06 0)
(0.100110207 1.48895787e-05 0)
(0.100103272 2.27845619e-05 0)
(0.100095853 2.98282932e-05 0)
(0.100088017 3.6091089e-05 0)
(0.100079821 4.16559046e-05 0)
(0.100071318 4.66036242e-05 0)
(0.100062548 5.09995234e-05 0)
(0.100053552 5.48936315e-05 0)
(0.10004438 5.83262484e-05 0)
(0.100035084 6.13301678e-05 0)
(0.100025715 6.39324529e-05 0)
(0.100016315 6.61571589e-05 0)
(0.10000692 6.80276792e-05 0)
(0.0999975597 6.95676179e-05 0)
(0.0999882576 7.08007415e-05 0)
(0.0999790322 7.17509555e-05 0)
(0.099969899 7.24421047e-05 0)
(0.0999608715 7.28972948e-05 0)
(0.0999519617 7.3138379e-05 0)
(0.0999431799 7.31856783e-05 0)
(0.0999345352 7.30577961e-05 0)
(0.0999260356 7.27716217e-05 0)
(0.0999176888 7.23424876e-05 0)
(0.0999095014 7.17843141e-05 0)
(0.0999014796 7.11097096e-05 0)
(0.0998936287 7.0330076e-05 0)
(0.0998859534 6.94557213e-05 0)
(0.0998784578 6.84959701e-05 0)
(0.0998711453 6.7459269e-05 0)
(0.0998640186 6.63532899e-05 0)
(0.09985708 6.5185029e-05 0)
(0.0998503313 6.39608962e-05 0)
(0.0998437737 6.26867887e-05 0)
(0.099837408 6.13681483e-05 0)
(0.0998312348 6.00100003e-05 0)
(0.0998252542 5.86169616e-05 0)
(0.0998194663 5.71932295e-05 0)
(0.0998138708 5.57425776e-05 0)
(0.0998084677 5.42683574e-05 0)
(0.0998032566 5.27735025e-05 0)
(0.0997982373 5.12605061e-05 0)
(0.0997934099 4.97314579e-05 0)
(0.0997887722 4.81878126e-05 0)
(0.0997843309 4.6631227e-05 0)
(0.0997800618 4.50598748e-05 0)
(0.0997760466 4.34846859e-05 0)
(0.0997720061 4.18541417e-05 0)
(0.0997689354 4.04146619e-05 0)
(0.0997636411 3.79542829e-05 0)
(0.099998034 5.66112429e-05 0)
(0.0999830336 0.000155918176 0)
(0.0999537882 0.000232946113 0)
(0.0999132019 0.000281252453 0)
(0.0998667049 0.00029789449 0)
(0.0998192154 0.000285180075 0)
(0.0997745126 0.000247499477 0)
(0.0997358628 0.000188390223 0)
(0.0997062923 0.000110858446 0)
(0.0996882136 2.01172079e-05 0)
(0.0996839231 -7.39902663e-05 0)
(0.0996937316 -0.000157439713 0)
(0.0997150063 -0.000214922179 0)
(0.0997436133 -0.000234135015 0)
(0.0997739666 -0.000209398868 0)
(0.0997999884 -0.000143044694 0)
(0.0998161071 -4.44337348e-05 0)
(0.0998184137 7.25470585e-05 0)
(0.0998052021 0.000192884302 0)
(0.099776587 0.000303105321 0)
(0.099734352 0.000392781145 0)
(0.099681662 0.000455236084 0)
(0.0996224682 0.000487480695 0)
(0.0995609668 0.000489600119 0)
(0.0995012308 0.000464003903 0)
(0.0994469578 0.000414902188 0)
(0.0994012684 0.000348195607 0)
(0.0993664798 0.000271692045 0)
(0.0993438069 0.000195279096 0)
(0.0993330183 0.000130544771 0)
(0.0993321593 8.94865086e-05 0)
(0.0993374962 8.23516133e-05 0)
(0.099343861 0.000115145112 0)
(0.0993454615 0.000187647608 0)
(0.0993369047 0.000292755263 0)
(0.0993141365 0.000417623017 0)
(0.0992751312 0.000546477751 0)
(0.0992201546 0.000664346034 0)
(0.0991514774 0.00076054766 0)
(0.0990726054 0.000830811034 0)
(0.0989872775 0.000877337046 0)
(0.0988985579 0.000906919866 0)
(0.0988082962 0.000927979288 0)
(0.0987170631 0.000947709013 0)
(0.098624481 0.000970337319 0)
(0.0985297369 0.000996872658 0)
(0.0984320488 0.00102602178 0)
(0.0983309385 0.00105556707 0)
(0.0982262883 0.00108351086 0)
(0.0981182507 0.00110862314 0)
(0.0980071152 0.00113041916 0)
(0.0978932075 0.00114883214 0)
(0.09777685 0.00116387008 0)
(0.0976583676 0.00117542203 0)
(0.0975381135 0.00118323056 0)
(0.0974164889 0.00118695882 0)
(0.0972939497 0.00118627108 0)
(0.0971710017 0.00118088149 0)
(0.097048191 0.00117056689 0)
(0.0969260948 0.00115515981 0)
(0.0968053134 0.00113453854 0)
(0.0966864637 0.00110862226 0)
(0.0965701731 0.0010773706 0)
(0.0964570727 0.0010407847 0)
(0.0963477903 0.000998906837 0)
(0.0962429424 0.000951818537 0)
(0.0961431272 0.000899637619 0)
(0.0960489198 0.000842515288 0)
(0.0959608694 0.000780633427 0)
(0.0958795013 0.000714201764 0)
(0.09580532 0.00064345476 0)
(0.0957388126 0.000568648259 0)
(0.095680451 0.000490056489 0)
(0.0956306915 0.000407970847 0)
(0.0955899707 0.000322699944 0)
(0.0955587032 0.000234572834 0)
(0.0955372809 0.000143951846 0)
(0.0955260523 5.12327934e-05 0)
(0.0955253455 -4.32213028e-05 0)
(0.0955355098 -0.000138994655 0)
(0.0955568541 -0.000235614269 0)
(0.0955896002 -0.000332569273 0)
(0.0956338896 -0.000429293946 0)
(0.0956897885 -0.000525167797 0)
(0.0957572767 -0.000619523322 0)
(0.0958362326 -0.000711651506 0)
(0.0959264251 -0.000800810142 0)
(0.0960275062 -0.000886236174 0)
(0.0961390048 -0.00096716063 0)
(0.096260323 -0.00104282638 0)
(0.0963907374 -0.00111250876 0)
(0.0965294039 -0.00117553749 0)
(0.0966753675 -0.00123131804 0)
(0.0968275762 -0.00127935093 0)
(0.0969848992 -0.0013192476 0)
(0.0971461486 -0.00135074221 0)
(0.0973101031 -0.00137369874 0)
(0.0974755326 -0.00138811366 0)
(0.0976412236 -0.00139411393 0)
(0.0978060022 -0.00139195082 0)
(0.097968756 -0.00138198975 0)
(0.0981284529 -0.001364697 0)
(0.098284156 -0.00134062382 0)
(0.0984350353 -0.00131038896 0)
(0.0985803753 -0.00127466043 0)
(0.0987195783 -0.00123413736 0)
(0.098852165 -0.00118953261 0)
(0.0989777715 -0.00114155682 0)
(0.0990961436 -0.0010909042 0)
(0.0992071293 -0.00103824053 0)
(0.0993106699 -0.000984193243 0)
(0.0994067895 -0.00092934389 0)
(0.0994955848 -0.000874222736 0)
(0.0995772147 -0.000819305291 0)
(0.0996518892 -0.0007650107 0)
(0.0997198604 -0.00071170168 0)
(0.0997814131 -0.000659685788 0)
(0.0998368566 -0.000609217874 0)
(0.0998865174 -0.00056050351 0)
(0.0999307331 -0.00051370312 0)
(0.0999698458 -0.00046893649 0)
(0.100004198 -0.000426287251 0)
(0.100034126 -0.000385807131 0)
(0.100059959 -0.00034751988 0)
(0.100082016 -0.000311424888 0)
(0.100100602 -0.000277500553 0)
(0.100116007 -0.000245707516 0)
(0.10012851 -0.000215991976 0)
(0.100138376 -0.000188289004 0)
(0.100145852 -0.000162525576 0)
(0.100151171 -0.000138623013 0)
(0.10015455 -0.000116498726 0)
(0.100156187 -9.60674601e-05 0)
(0.100156266 -7.72424523e-05 0)
(0.100154957 -5.99368072e-05 0)
(0.100152419 -4.4065365e-05 0)
(0.100148804 -2.95472666e-05 0)
(0.100144243 -1.63062252e-05 0)
(0.100138782 -4.25622851e-06 0)
(0.100132465 6.75297405e-06 0)
(0.100125521 1.66664479e-05 0)
(0.100118117 2.55625423e-05 0)
(0.100110265 3.35169083e-05 0)
(0.100102001 4.06018538e-05 0)
(0.100093374 4.68834468e-05 0)
(0.100084434 5.24246382e-05 0)
(0.100075237 5.72840111e-05 0)
(0.100065847 6.15181266e-05 0)
(0.100056325 6.51845548e-05 0)
(0.100046719 6.83392468e-05 0)
(0.100037061 7.10330249e-05 0)
(0.100027379 7.33107564e-05 0)
(0.1000177 7.52113563e-05 0)