/*--------------------------------*- C++ -*----------------------------------*\
| =========                 |                                                 |
| \\      /  F ield         | OpenFOAM: The Open Source CFD Toolbox           |
|  \\    /   O peration     | Version:  v2012                                 |
|   \\  /    A nd           | Website:  www.openfoam.com                      |
|    \\/     M anipulation  |                                                 |
\*---------------------------------------------------------------------------*/
FoamFile
{
    version     2.0;
    format      ascii;
    class       surfaceVectorField;
    location    "2.94";
    object      Uf;
}
// * * * * * * * * * * * * * * * * * * * * * * * * * * * * * * * * * * * * * //

dimensions      [0 1 -1 0 0 0 0];


internalField   nonuniform List<vector> 
56481
(
(0.100003807 -1.48115206e-05 0)
(0.100000429 -1.0077478e-05 0)
(0.100015564 -3.44124352e-05 0)
(0.100006002 -3.51410915e-05 0)
(0.100037233 -5.92125924e-05 0)
(0.100020358 -6.83126465e-05 0)
(0.100070286 -8.67303548e-05 0)
(0.100046431 -0.000107821986 0)
(0.100114932 -0.000112393004 0)
(0.100085434 -0.000148529087 0)
(0.100169593 -0.00013067322 0)
(0.100136826 -0.000183046689 0)
(0.100230775 -0.000136709441 0)
(0.10019812 -0.000203546959 0)
(0.100293559 -0.000127907469 0)
(0.100264862 -0.000204362771 0)
(0.100352511 -0.000104582827 0)
(0.100331261 -0.000183776288 0)
(0.100402608 -6.94544648e-05 0)
(0.100391324 -0.000144029235 0)
(0.100439887 -2.64605474e-05 0)
(0.100439908 -9.00668201e-05 0)
(0.100461278 2.07941845e-05 0)
(0.100473448 -2.7716806e-05 0)
(0.100471742 6.79813678e-05 0)
(0.100491709 3.5455163e-05 0)
(0.100471714 0.000109528986 0)
(0.100496198 9.389348e-05 0)
(0.100462242 0.000141394379 0)
(0.100488333 0.000142318632 0)
(0.100445188 0.000161784149 0)
(0.100470561 0.000177309922 0)
(0.10042295 0.000170297895 0)
(0.100445883 0.000197371043 0)
(0.100398053 0.00016764528 0)
(0.100417331 0.000202635194 0)
(0.100372846 0.00015539447 0)
(0.100387756 0.000194557821 0)
(0.100349351 0.000135729912 0)
(0.100359711 0.000175437045 0)
(0.100329079 0.000111441433 0)
(0.100335327 0.000148270866 0)
(0.100312678 8.60956414e-05 0)
(0.100316097 0.00011698239 0)
(0.100300365 6.40444353e-05 0)
(0.100302771 8.68121203e-05 0)
(0.100291628 4.98832835e-05 0)
(0.100295104 6.3190447e-05 0)
(0.100284376 4.75179525e-05 0)
(0.100291428 5.21812225e-05 0)
(0.100274993 5.93633297e-05 0)
(0.100288507 5.86370753e-05 0)
(0.100259022 8.58955552e-05 0)
(0.100281816 8.49343534e-05 0)
(0.100232139 0.000125490685 0)
(0.100266311 0.000130392021 0)
(0.100190917 0.000174625398 0)
(0.100237388 0.000191378173 0)
(0.100133287 0.000228536 0)
(0.100191673 0.000262047821 0)
(0.100058698 0.000282119613 0)
(0.100127445 0.000335549476 0)
(0.0999680045 0.000330750042 0)
(0.100044735 0.000405271062 0)
(0.0998631499 0.000370829773 0)
(0.0999451117 0.000465778973 0)
(0.0997467666 0.000400058121 0)
(0.099831253 0.000513325921 0)
(0.0996217876 0.000417477147 0)
(0.0997064554 0.000545966611 0)
(0.0994911466 0.000423382925 0)
(0.0995742012 0.000563414639 0)
(0.0993575731 0.00041918004 0)
(0.0994378415 0.000566798184 0)
(0.0992234448 0.000407225568 0)
(0.0993003827 0.000558434489 0)
(0.0990906421 0.000390668374 0)
(0.0991643235 0.000541670033 0)
(0.098960367 0.000373252623 0)
(0.0990314808 0.000520751887 0)
(0.0988329348 0.000359034819 0)
(0.0989027791 0.000500632041 0)
(0.0987076017 0.000351974271 0)
(0.0987780329 0.000486589123 0)
(0.0985825317 0.000355400751 0)
(0.0986558116 0.000483601449 0)
(0.0984549926 0.000371428731 0)
(0.0985334983 0.000495516272 0)
(0.0983218045 0.000400452479 0)
(0.0984076148 0.000524192868 0)
(0.0981799594 0.000440891389 0)
(0.0982744042 0.000568889508 0)
(0.0980272517 0.000489330854 0)
(0.0981305592 0.000626158062 0)
(0.0978627395 0.000541106455 0)
(0.0979739116 0.000690384569 0)
(0.0976869153 0.000591230116 0)
(0.0978038935 0.000754905808 0)
(0.0975015506 0.000635416674 0)
(0.0976216339 0.0008134203 0)
(0.0973092776 0.000670907987 0)
(0.0974296679 0.000861286403 0)
(0.0971130392 0.000696847789 0)
(0.0972313486 0.000896320652 0)
(0.0969155631 0.000714118013 0)
(0.0970301456 0.000918878134 0)
(0.0967189918 0.000724739622 0)
(0.0968290305 0.00093124972 0)
(0.0965247391 0.000731084021 0)
(0.0966301077 0.00093664358 0)
(0.0963335625 0.000735175474 0)
(0.0964345509 0.00093813373 0)
(0.0961457785 0.000738285716 0)
(0.0962427961 0.000937914715 0)
(0.0959615175 0.000740877256 0)
(0.0960548697 0.000937032187 0)
(0.0957809258 0.000742813579 0)
(0.0958707114 0.000935551908 0)
(0.0956042697 0.000743679754 0)
(0.0956903887 0.000932979212 0)
(0.0954319404 0.000743063361 0)
(0.0955141687 0.000928700655 0)
(0.0952643983 0.000740709995 0)
(0.0953424769 0.000922281878 0)
(0.0951021025 0.000736546384 0)
(0.0951758008 0.000913567192 0)
(0.0949454566 0.0007306188 0)
(0.0950145989 0.000902624136 0)
(0.0947947866 0.000723009269 0)
(0.0948592477 0.000889621637 0)
(0.0946503436 0.000713774436 0)
(0.0947100297 0.000874720973 0)
(0.0945123203 0.000702922297 0)
(0.0945671493 0.000858018829 0)
(0.0943808679 0.000690418457 0)
(0.0944307585 0.000839541451 0)
(0.0942561095 0.000676204582 0)
(0.0943009762 0.000819266912 0)
(0.0941381469 0.000660214933 0)
(0.094177901 0.000797151212 0)
(0.0940270658 0.000642385209 0)
(0.0940616164 0.000773144724 0)
(0.09392294 0.000622654662 0)
(0.0939521947 0.000747197247 0)
(0.0938258376 0.000600965363 0)
(0.0938497013 0.000719256541 0)
(0.0937358286 0.000577261847 0)
(0.093754202 0.000689265972 0)
(0.093652996 0.0005514923 0)
(0.0936657724 0.000657164123 0)
(0.0935774501 0.000523609881 0)
(0.0935845093 0.000622886091 0)
(0.0935093593 0.000493571452 0)
(0.0935105452 0.000586361575 0)
(0.0934490325 0.000461317565 0)
(0.0934440768 0.000547503203 0)
(0.0933967574 0.000426746691 0)
(0.0933853565 0.000506142033 0)
(0.0933525618 0.000389755206 0)
(0.0933345705 0.000462009442 0)
(0.09331673 0.000350233505 0)
(0.0932918395 0.000414837381 0)
(0.0932895004 0.000308012934 0)
(0.0932573285 0.00036465727 0)
(0.0932709449 0.000262894167 0)
(0.093231196 0.000311488235 0)
(0.0932611021 0.000214694387 0)
(0.0932135336 0.000255140109 0)
(0.0932598459 0.000163356108 0)
(0.0932044189 0.000195585821 0)
(0.0932667994 0.000109065276 0)
(0.0932039205 0.000133079909 0)
(0.0932812187 5.24501999e-05 0)
(0.0932122336 6.82107252e-05 0)
(0.0933013701 -4.28269627e-06 0)
(0.0932294229 2.60695324e-06 0)
(0.0933338347 -5.98124649e-05 0)
(0.0932559284 -6.71996501e-05 0)
(0.0933791922 -0.000115454747 0)
(0.0932938288 -0.000135668769 0)
(0.093437366 -0.000172254179 0)
(0.093344732 -0.00020538281 0)
(0.0935083535 -0.000230226168 0)
(0.0934084909 -0.000276532929 0)
(0.0935921551 -0.000289146648 0)
(0.0934850367 -0.000348809634 0)
(0.0936887906 -0.000348795776 0)
(0.0935746829 -0.000421995054 0)
(0.0937982357 -0.000408843293 0)
(0.0936775933 -0.000495768501 0)
(0.0939203888 -0.000468841431 0)
(0.0937937385 -0.000569637162 0)
(0.0940550607 -0.000528280684 0)
(0.0939230239 -0.000643012378 0)
(0.0942019555 -0.000586612112 0)
(0.0940652699 -0.000715244912 0)
(0.0943606502 -0.00064325097 0)
(0.0942201566 -0.000785627973 0)
(0.0945305825 -0.000697585029 0)
(0.0943872106 -0.000853409286 0)
(0.0947110462 -0.000748988104 0)
(0.0945658032 -0.000917811126 0)
(0.0949011929 -0.000796836719 0)
(0.0947551463 -0.000978051621 0)
(0.0951000377 -0.000840530164 0)
(0.094954293 -0.00103336828 0)
(0.0953064704 -0.000879512431 0)
(0.095162146 -0.0010830439 0)
(0.0955192695 -0.000913293553 0)
(0.0953774709 -0.00112643268 0)
(0.0957371207 -0.000941468043 0)
(0.0955989136 -0.00116298423 0)
(0.0959586382 -0.000963729201 0)
(0.0958250235 -0.00119226387 0)
(0.0961823897 -0.000979878475 0)
(0.0960542802 -0.00121396805 0)
(0.0964069246 -0.000989830013 0)
(0.0962851245 -0.00122793404 0)
(0.0966308022 -0.000993610686 0)
(0.0965159914 -0.00123414375 0)
(0.0968526217 -0.000991356134 0)
(0.0967453444 -0.00123272167 0)
(0.0970710492 -0.000983303317 0)
(0.0969717077 -0.00122392747 0)
(0.0972848425 -0.000969780068 0)
(0.0971936962 -0.00120814384 0)
(0.0974928718 -0.000951192158 0)
(0.0974100415 -0.00118586031 0)
(0.0976941353 -0.000928008538 0)
(0.0976196111 -0.00115765428 0)
(0.0978877703 -0.000900745418 0)
(0.0978214239 -0.00112417014 0)
(0.098073059 -0.000869949983 0)
(0.0980146578 -0.00108609776 0)
(0.0982494296 -0.000836184562 0)
(0.0981986535 -0.00104415133 0)
(0.0984164538 -0.000800011825 0)
(0.0983729117 -0.000999049607 0)
(0.0985738403 -0.000761981581 0)
(0.0985370874 -0.000951498088 0)
(0.098721426 -0.000722619584 0)
(0.0986909798 -0.00090217383 0)
(0.0988591643 -0.000682418426 0)
(0.0988345198 -0.000851713081 0)
(0.0989871136 -0.000641830604 0)
(0.0989677564 -0.0008007018 0)
(0.099105423 -0.000601263646 0)
(0.0990908413 -0.000749669002 0)
(0.09921432 -0.000561077222 0)
(0.0992040136 -0.000699082711 0)
(0.0993140963 -0.000521581983 0)
(0.099307585 -0.00064934824 0)
(0.0994050963 -0.000483039926 0)
(0.0994019252 -0.000600808416 0)
(0.0994877045 -0.000445665974 0)
(0.0994874486 -0.000553745491 0)
(0.0995623354 -0.000409630269 0)
(0.0995646023 -0.00050838428 0)
(0.0996294241 -0.000375061075 0)
(0.0996338556 -0.000464896186 0)
(0.0996894182 -0.00034204848 0)
(0.0996956904 -0.000423403945 0)
(0.0997427717 -0.00031064872 0)
(0.099750594 -0.000383986831 0)
(0.0997899386 -0.000280888639 0)
(0.0997990526 -0.000346686082 0)
(0.0998313679 -0.000252769752 0)
(0.0998415454 -0.000311510371 0)
(0.0998675006 -0.00022627203 0)
(0.0998785407 -0.000278441135 0)
(0.0998987673 -0.000201358194 0)
(0.0999104931 -0.000247437717 0)
(0.0999255861 -0.000177978544 0)
(0.0999378409 -0.00021844253 0)
(0.0999483612 -0.000156075324 0)
(0.0999610048 -0.000191386163 0)
(0.0999674813 -0.000135586541 0)
(0.0999803861 -0.000166192104 0)
(0.0999833186 -0.000116450414 0)
(0.0999963648 -0.000142781041 0)
(0.0999962273 -9.86109943e-05 0)
(0.100009298 -0.000121075064 0)
(0.10000654 -8.20243075e-05 0)
(0.100019518 -0.000101001434 0)
(0.10001456 -6.66631583e-05 0)
(0.100027327 -8.24945778e-05 0)
(0.100020548 -5.25168283e-05 0)
(0.100032994 -6.54949602e-05 0)
(0.100024715 -3.95802638e-05 0)
(0.100036755 -4.9945247e-05 0)
(0.100027213 -2.7833269e-05 0)
(0.100038805 -3.57834024e-05 0)
(0.100028155 -1.72221077e-05 0)
(0.100039309 -2.29313131e-05 0)
(0.100027623 -7.63512762e-06 0)
(0.100038408 -1.12894413e-05 0)
(0.100025625 1.13476556e-06 0)
(0.100036211 -6.45539266e-07 0)
(0.100022861 9.14447009e-06 0)
(0.100032932 8.74373072e-06 0)
(0.100019295 1.6298502e-05 0)
(0.100028839 1.73406835e-05 0)
(0.100014944 2.26202493e-05 0)
(0.100024008 2.49979673e-05 0)
(0.100009849 2.81933073e-05 0)
(0.100018462 3.17929757e-05 0)
(0.100004076 3.30928934e-05 0)
(0.10001228 3.77895974e-05 0)
(0.0999977048 3.73888527e-05 0)
(0.100005542 4.30518918e-05 0)
(0.0999908149 4.11470387e-05 0)
(0.099998317 4.76505789e-05 0)
(0.0999834841 4.4425249e-05 0)
(0.0999906747 5.16517531e-05 0)
(0.0999757858 4.72728165e-05 0)
(0.0999826834 5.51139795e-05 0)
(0.0999677867 4.97318116e-05 0)
(0.0999744051 5.80908768e-05 0)
(0.0999595458 5.18384023e-05 0)
(0.0999658962 6.06301742e-05 0)
(0.0999511152 5.36239902e-05 0)
(0.0999572074 6.27735287e-05 0)
(0.0999425409 5.51161086e-05 0)
(0.0999483838 6.45576769e-05 0)
(0.0999338628 5.63392575e-05 0)
(0.0999394649 6.60153158e-05 0)
(0.0999251153 5.73156614e-05 0)
(0.0999304852 6.71758429e-05 0)
(0.0999163283 5.80658651e-05 0)
(0.0999214745 6.80659732e-05 0)
(0.0999075273 5.86091282e-05 0)
(0.0999124586 6.87102108e-05 0)
(0.0998987345 5.8963627e-05 0)
(0.0999034597 6.91311726e-05 0)
(0.099889969 5.91465231e-05 0)
(0.0998944971 6.93497922e-05 0)
(0.0998812478 5.91739573e-05 0)
(0.0998855877 6.93854469e-05 0)
(0.0998725857 5.90610176e-05 0)
(0.0998767459 6.92560407e-05 0)
(0.0998639958 5.88216974e-05 0)
(0.0998679846 6.89780632e-05 0)
(0.0998554898 5.84688574e-05 0)
(0.099859315 6.85666317e-05 0)
(0.0998470782 5.80141917e-05 0)
(0.0998507468 6.80355233e-05 0)
(0.0998387699 5.74682101e-05 0)
(0.0998422886 6.73972037e-05 0)
(0.0998305732 5.68402471e-05 0)
(0.0998339479 6.66628634e-05 0)
(0.099822495 5.61385093e-05 0)
(0.0998257311 6.58424733e-05 0)
(0.0998145411 5.53701706e-05 0)
(0.0998176438 6.49448695e-05 0)
(0.0998067165 5.45415186e-05 0)
(0.0998096903 6.39778802e-05 0)
(0.099799025 5.36581425e-05 0)
(0.0998018744 6.29485011e-05 0)
(0.0997914705 5.27250292e-05 0)
(0.0997941994 6.18630791e-05 0)
(0.0997840568 5.17465212e-05 0)
(0.0997866681 6.07271153e-05 0)
(0.099776787 5.07263423e-05 0)
(0.0997792832 5.95451236e-05 0)
(0.0997696644 4.96675449e-05 0)
(0.099772048 5.83207971e-05 0)
(0.0997626923 4.85729941e-05 0)
(0.0997649615 5.70566722e-05 0)
(0.0997558747 4.7442884e-05 0)
(0.0997580385 5.57554906e-05 0)
(0.0997492176 4.62841111e-05 0)
(0.0997512398 5.44126974e-05 0)
(0.0997427278 4.50658108e-05 0)
(0.099744718 5.30455568e-05 0)
(0.0997364275 4.39007045e-05 0)
(0.0997379779 5.15599083e-05 0)
(0.0997303179 4.22510333e-05 0)
(0.0997328291 5.02964758e-05 0)
(0.0997235652 4.76835754e-05 0)
(0.100001749 -2.79765497e-05 0)
(0.100000333 -1.20915237e-05 0)
(0.100010898 -6.50301701e-05 0)
(0.100005322 -4.56763385e-05 0)
(0.100030213 -0.000111375581 0)
(0.100018893 -9.05537649e-05 0)
(0.100062006 -0.000162718172 0)
(0.100044415 -0.000144432388 0)
(0.10010739 -0.000211240431 0)
(0.100083491 -0.00020078966 0)
(0.100165332 -0.000247345101 0)
(0.100135835 -0.000249767843 0)
(0.100232279 -0.000262464402 0)
(0.100199075 -0.000280637518 0)
(0.100302694 -0.000251837781 0)
(0.1002687 -0.000285446672 0)
(0.10037019 -0.00021566967 0)
(0.1003387 -0.000261498969 0)
(0.100428776 -0.00015844732 0)
(0.100402737 -0.000211491801 0)
(0.100473946 -8.72335189e-05 0)
(0.100455358 -0.000142080815 0)
(0.100503697 -9.71645189e-06 0)
(0.100493013 -6.19748074e-05 0)
(0.100516389 6.59617777e-05 0)
(0.100514211 2.08402742e-05 0)
(0.100512998 0.000132183648 0)
(0.100519373 9.77979399e-05 0)
(0.100496836 0.000183770084 0)
(0.100510549 0.000160929121 0)
(0.100471484 0.000217953713 0)
(0.100490707 0.000206502852 0)
(0.10044054 0.000234060235 0)
(0.10046325 0.000233003427 0)
(0.10040735 0.000233116494 0)
(0.100431653 0.000240854615 0)
(0.100374974 0.000217353497 0)
(0.100399178 0.00023183894 0)
(0.100346082 0.000189889957 0)
(0.100368732 0.000208706912 0)
(0.1003228 0.000154799135 0)
(0.100342767 0.000175079772 0)
(0.100306524 0.000117436273 0)
(0.100323115 0.000135724891 0)
(0.100297764 8.44834488e-05 0)
(0.100310768 9.68998055e-05 0)
(0.100295197 6.32541262e-05 0)
(0.100305447 6.61456584e-05 0)
(0.100295924 6.037149e-05 0)
(0.100305214 5.13449137e-05 0)
(0.100295724 8.02728441e-05 0)
(0.100306488 5.88664584e-05 0)
(0.100289486 0.00012408004 0)
(0.100304427 9.21176762e-05 0)
(0.100271923 0.000189209775 0)
(0.100293657 0.000150616459 0)
(0.100238499 0.000269852592 0)
(0.100269164 0.000229866049 0)
(0.10018618 0.000358190108 0)
(0.100227124 0.000322294396 0)
(0.100113824 0.000445941367 0)
(0.100165444 0.000418867815 0)
(0.100022181 0.000525746499 0)
(0.100083924 0.000510799347 0)
(0.099913552 0.000592070977 0)
(0.0999840793 0.000590867407 0)
(0.0997912768 0.000641562514 0)
(0.0998687208 0.000654127651 0)
(0.0996592007 0.000672977393 0)
(0.0997414323 0.000698054183 0)
(0.0995212229 0.000686880776 0)
(0.0996060837 0.000722298176 0)
(0.0993809703 0.00068531948 0)
(0.0994664498 0.000728301176 0)
(0.0992415687 0.000671587432 0)
(0.0993259392 0.000718957529 0)
(0.099105451 0.000650090954 0)
(0.0991873902 0.00069841163 0)
(0.0989741532 0.000626214729 0)
(0.099052874 0.00067194325 0)
(0.098848096 0.000606030639 0)
(0.098923471 0.000645788737 0)
(0.0987264072 0.000595714811 0)
(0.0987990465 0.000626715701 0)
(0.0986068789 0.000600651113 0)
(0.0986781071 0.000621240023 0)
(0.0984861543 0.000624366689 0)
(0.0985578496 0.000634532432 0)
(0.0983601846 0.000667594327 0)
(0.0984344816 0.000669248943 0)
(0.0982249177 0.000727808903 0)
(0.0983038163 0.000724651397 0)
(0.0980770863 0.000799494318 0)
(0.0981620457 0.000796388064 0)
(0.0979148965 0.000875177652 0)
(0.0980065134 0.000877148601 0)
(0.097738415 0.000946998269 0)
(0.0978362809 0.000958126863 0)
(0.0975495311 0.00100837278 0)
(0.0976523186 0.00103092301 0)
(0.0973514967 0.00105526386 0)
(0.0974572586 0.00108932594 0)
(0.097148189 0.00108669017 0)
(0.0972547799 0.0011304326 0)
(0.09694332 0.00110437949 0)
(0.0970488115 0.00115478786 0)
(0.0967398238 0.00111176086 0)
(0.0968427931 0.00116557864 0)
(0.0965395667 0.00111269694 0)
(0.0966391959 0.00116724261 0)
(0.0963434032 0.00111039497 0)
(0.0964393975 0.00116401899 0)
(0.0961514812 0.0011068017 0)
(0.0962438765 0.00115891579 0)
(0.095963638 0.00110255797 0)
(0.0960525876 0.00115333647 0)
(0.0957797344 0.00109737133 0)
(0.0958653499 0.00114731965 0)
(0.0955998388 0.0010905503 0)
(0.0956821189 0.00114013172 0)
(0.095424252 0.00108145846 0)
(0.0955030893 0.00113089143 0)
(0.0952534259 0.00106975489 0)
(0.0953286572 0.0011189908 0)
(0.0950878472 0.00105541581 0)
(0.0951593095 0.0011042335 0)
(0.094927947 0.00103862058 0)
(0.0949955136 0.00108675157 0)
(0.094774058 0.00101960613 0)
(0.0948376492 0.00106682716 0)
(0.0946264159 0.00099856309 0)
(0.0946859905 0.00104473312 0)
(0.0944851841 0.000975596473 0)
(0.0945407238 0.00102064932 0)
(0.0943504817 0.0009507358 0)
(0.0944019767 0.000994653273 0)
(0.0942224029 0.000923964791 0)
(0.0942698435 0.000966751631 0)
(0.0941010271 0.000895247257 0)
(0.0941443995 0.000936917277 0)
(0.0939864238 0.000864539791 0)
(0.0940257086 0.000905112183 0)
(0.093878656 0.000831793286 0)
(0.0939138259 0.000871293502 0)
(0.0937777859 0.000796949833 0)
(0.0938088031 0.000835409917 0)
(0.0936838831 0.000759940316 0)
(0.0937106949 0.000797396405 0)
(0.0935970345 0.000720684221 0)
(0.0936195678 0.000757171613 0)
(0.0935173554 0.000679089358 0)
(0.0935355096 0.00071463777 0)
(0.0934449999 0.00063504754 0)
(0.0934586375 0.000669680079 0)
(0.0933801626 0.000588409502 0)
(0.0933891037 0.000622164302 0)
(0.0933230362 0.000538958483 0)
(0.0933270854 0.000571923903 0)
(0.0932737539 0.00048646305 0)
(0.0932727546 0.000518758776 0)
(0.0932323668 0.000430705133 0)
(0.0932262509 0.000462495327 0)
(0.0931990117 0.00037144857 0)
(0.0931877219 0.000403066147 0)
(0.0931738014 0.00030850159 0)
(0.0931573803 0.000340518265 0)
(0.0931568538 0.000241812071 0)
(0.0931354811 0.000274655492 0)
(0.0931485062 0.000171516958 0)
(0.0931223219 0.000205198265 0)
(0.093149319 9.79578171e-05 0)
(0.0931182121 0.000132143881 0)
(0.0931604049 2.14902389e-05 0)
(0.0931233573 5.54451663e-05 0)
(0.0931834328 -5.69330902e-05 0)
(0.0931384594 -2.39099883e-05 0)
(0.0932154849 -0.000136257276 0)
(0.093164033 -0.000104108156 0)
(0.0932594388 -0.000216720748 0)
(0.0932006464 -0.000186282375 0)
(0.0933157505 -0.000298880188 0)
(0.093249533 -0.000270226533 0)
(0.0933849036 -0.000382609895 0)
(0.0933113432 -0.00035616377 0)
(0.0934673351 -0.000467516685 0)
(0.0933863439 -0.000443730797 0)
(0.0935632851 -0.00055321283 0)
(0.0934748735 -0.00053248285 0)
(0.0936728759 -0.000639213485 0)
(0.0935772307 -0.00062196394 0)
(0.0937961437 -0.000724893424 0)
(0.0936935606 -0.000711581974 0)
(0.0939330102 -0.000809529104 0)
(0.0938238875 -0.000800616229 0)
(0.0940832583 -0.000892323898 0)
(0.093968118 -0.000888257815 0)
(0.0942465176 -0.000972419669 0)
(0.0941260055 -0.00097362351 0)
(0.0944222519 -0.00104891726 0)
(0.094297128 -0.00105577003 0)
(0.0946097507 -0.00112090307 0)
(0.0944808793 -0.00113371874 0)
(0.0948081265 -0.00118747642 0)
(0.0946764625 -0.00120648431 0)
(0.0950163194 -0.00124777806 0)
(0.0948828876 -0.00127310553 0)
(0.0952331071 -0.00130101919 0)
(0.0950989778 -0.00133267821 0)
(0.0954571213 -0.00134650938 0)
(0.0953233837 -0.00138438845 0)
(0.0956868703 -0.00138368171 0)
(0.095554604 -0.00142754372 0)
(0.0959207673 -0.00141211359 0)
(0.0957910144 -0.00146159969 0)
(0.096157163 -0.00143154208 0)
(0.0960309014 -0.00148618126 0)
(0.0963943827 -0.00144187263 0)
(0.0962725024 -0.00150109611 0)
(0.096630764 -0.00144318078 0)
(0.0965140471 -0.00150634034 0)
(0.0968646943 -0.00143570691 0)
(0.0967538001 -0.0015020959 0)
(0.0970946459 -0.00141984442 0)
(0.0969901016 -0.00148872023 0)
(0.0973192068 -0.00139612244 0)
(0.0972214032 -0.00146672918 0)
(0.097537106 -0.00136518422 0)
(0.0974462987 -0.00143677443 0)
(0.0977472316 -0.0013277628 0)
(0.0976635479 -0.00139961708 0)
(0.0979486436 -0.00128465526 0)
(0.097872092 -0.00135609916 0)
(0.0981405793 -0.00123669707 0)
(0.0980710626 -0.00130711452 0)
(0.0983224523 -0.00118473768 0)
(0.0982597834 -0.00125358085 0)
(0.0984938476 -0.00112961834 0)
(0.0984377648 -0.00119641394 0)
(0.0986545115 -0.00107215273 0)
(0.0986046949 -0.00113650496 0)
(0.0988043383 -0.00101311109 0)
(0.0987604251 -0.00107470155 0)
(0.0989433549 -0.000953207597 0)
(0.0989049541 -0.00101179287 0)
(0.0990717048 -0.000893091417 0)
(0.099038409 -0.000948498578 0)
(0.0991896299 -0.000833340796 0)
(0.0991610268 -0.0008854616 0)
(0.0992974545 -0.000774460241 0)
(0.0992731355 -0.00082324429 0)
(0.0993955681 -0.000716880079 0)
(0.0993751359 -0.00076232758 0)
(0.0994844112 -0.000660958076 0)
(0.0994674845 -0.000703112553 0)
(0.099564461 -0.000606982774 0)
(0.0995506788 -0.000645924013 0)
(0.0996362196 -0.000555177952 0)
(0.0996252433 -0.000591015391 0)
(0.0997002034 -0.000505708018 0)
(0.0996917178 -0.000538574519 0)
(0.099756934 -0.000458684071 0)
(0.0997506475 -0.000488730109 0)
(0.0998069308 -0.000414170204 0)
(0.0998025754 -0.000441558823 0)
(0.0998507048 -0.0003721899 0)
(0.0998480352 -0.000397092564 0)
(0.0998887547 -0.00033273242 0)
(0.0998875463 -0.000355325401 0)
(0.0999215625 -0.000295758902 0)
(0.0999216099 -0.000316219755 0)
(0.0999495905 -0.000261208364 0)
(0.099950706 -0.000279712374 0)
(0.0999732794 -0.000229003867 0)
(0.0999752915 -0.000245720667 0)
(0.0999930466 -0.000199058552 0)
(0.0999957984 -0.000214148469 0)
(0.100009285 -0.000171280923 0)
(0.100012633 -0.000184890503 0)
(0.100022359 -0.000145579186 0)
(0.100026176 -0.000157835929 0)
(0.100032603 -0.000121864357 0)
(0.100036781 -0.000132871563 0)
(0.100040318 -0.000100050784 0)
(0.100044776 -0.00010988581 0)
(0.100045773 -8.005328e-05 0)
(0.100050462 -8.8775042e-05 0)
(0.100049207 -6.17837177e-05 0)
(0.100054112 -6.94501573e-05 0)
(0.100050846 -4.51492093e-05 0)
(0.100055966 -5.18318221e-05 0)
(0.100050894 -3.00494598e-05 0)
(0.100056232 -3.58393835e-05 0)
(0.100049551 -1.6375139e-05 0)
(0.100055081 -2.13845857e-05 0)
(0.100047017 -4.00674471e-06 0)
(0.10005267 -8.37139772e-06 0)
(0.100043488 7.23192701e-06 0)
(0.100049168 3.41823594e-06 0)
(0.100038908 1.74310888e-05 0)
(0.10004469 1.40171793e-05 0)
(0.100033554 2.65548659e-05 0)
(0.100039357 2.35064239e-05 0)
(0.100027515 3.46348047e-05 0)
(0.100033322 3.19512091e-05 0)
(0.100020888 4.17589639e-05 0)
(0.100026673 3.94250436e-05 0)
(0.100013745 4.80109026e-05 0)
(0.100019484 4.60142676e-05 0)
(0.100006154 5.34708425e-05 0)
(0.100011833 5.17933536e-05 0)
(0.0999981773 5.82172249e-05 0)
(0.100003784 5.68356907e-05 0)
(0.0999898758 6.23215969e-05 0)
(0.0999954008 6.12111154e-05 0)
(0.0999813052 6.58475801e-05 0)
(0.0999867421 6.49831487e-05 0)
(0.0999725178 6.88517517e-05 0)
(0.0999778617 6.82096787e-05 0)
(0.0999635618 7.13845123e-05 0)
(0.0999688089 7.09431388e-05 0)
(0.0999544807 7.34908925e-05 0)
(0.0999596283 7.32305969e-05 0)
(0.0999453131 7.52112673e-05 0)
(0.0999503595 7.5114292e-05 0)
(0.0999360931 7.6581977e-05 0)
(0.0999410374 7.66322319e-05 0)
(0.0999268506 7.76358761e-05 0)
(0.0999316924 7.78187593e-05 0)
(0.0999176114 7.8402802e-05 0)
(0.0999223508 7.87050682e-05 0)
(0.0999083979 7.89099639e-05 0)
(0.0999130353 7.9319635e-05 0)
(0.0998992297 7.91822477e-05 0)
(0.0999037655 7.96885536e-05 0)
(0.0998901234 7.92424543e-05 0)
(0.0998945583 7.9835784e-05 0)
(0.0998810937 7.91114853e-05 0)
(0.0998854283 7.97833339e-05 0)
(0.099872153 7.88084887e-05 0)
(0.0998763882 7.95513927e-05 0)
(0.0998633121 7.83509731e-05 0)
(0.0998674487 7.91584337e-05 0)
(0.0998545804 7.77549003e-05 0)
(0.0998586193 7.86212966e-05 0)
(0.0998459659 7.70347616e-05 0)
(0.0998499081 7.7955259e-05 0)
(0.0998374755 7.62036492e-05 0)
(0.099841322 7.7174105e-05 0)
(0.0998291149 7.52733313e-05 0)
(0.099832867 7.62901998e-05 0)
(0.0998208891 7.42543379e-05 0)
(0.0998245481 7.53145734e-05 0)
(0.0998128023 7.31560648e-05 0)
(0.0998163694 7.42570194e-05 0)
(0.0998048576 7.19869003e-05 0)
(0.0998083343 7.31262079e-05 0)
(0.0997970581 7.075436e-05 0)
(0.0998004456 7.19298014e-05 0)
(0.099789406 6.94650948e-05 0)
(0.0997927053 7.06745534e-05 0)
(0.0997819036 6.81247371e-05 0)
(0.0997851153 6.93663057e-05 0)
(0.0997745526 6.6737859e-05 0)
(0.0997776769 6.8009895e-05 0)
(0.0997673547 6.53077964e-05 0)
(0.0997703924 6.66092434e-05 0)
(0.0997603117 6.38373228e-05 0)
(0.099763259 6.51668613e-05 0)
(0.0997534248 6.23250863e-05 0)
(0.0997562904 6.36858393e-05 0)
(0.0997466962 6.07790548e-05 0)
(0.099749444 6.21607441e-05 0)
(0.0997401223 5.91570648e-05 0)
(0.0997428721 6.06154747e-05 0)
(0.099733707 5.76109772e-05 0)
(0.0997360664 5.89472791e-05 0)
(0.0997273778 5.54685757e-05 0)
(0.099730863 5.75846081e-05 0)
(0.0997214632 5.48044732e-05 0)
(0.100002856 -3.16721442e-05 0)
(0.100000366 -1.53801372e-05 0)
(0.10001318 -7.4497723e-05 0)
(0.100005576 -5.75649581e-05 0)
(0.100033668 -0.000128330396 0)
(0.100019466 -0.000114146285 0)
(0.10006635 -0.000188469862 0)
(0.100045413 -0.000182066148 0)
(0.100112019 -0.00024622935 0)
(0.100085135 -0.000253377249 0)
(0.100169554 -0.000290551317 0)
(0.10013846 -0.000316020289 0)
(0.100235575 -0.000311277468 0)
(0.100203072 -0.000356662208 0)
(0.100304871 -0.000302508044 0)
(0.100274452 -0.000365242105 0)
(0.100371419 -0.000264057266 0)
(0.100346504 -0.000338129859 0)
(0.100429495 -0.000200794504 0)
(0.100412747 -0.000278367834 0)
(0.100474548 -0.000120934269 0)
(0.100467534 -0.00019395906 0)
(0.100503729 -3.43400105e-05 0)
(0.100506885 -9.55779791e-05 0)
(0.10051729 4.94171603e-05 0)
(0.100529217 5.22448023e-06 0)
(0.10051713 0.000122785909 0)
(0.100535419 9.79825395e-05 0)
(0.100504651 0.000180449505 0)
(0.100527449 0.000175298726 0)
(0.100482716 0.000219263571 0)
(0.100507897 0.000231761154 0)
(0.100454639 0.000238387718 0)
(0.100480248 0.000265334949 0)
(0.100423789 0.000238848054 0)
(0.100448197 0.000276378733 0)
(0.100393271 0.000222960221 0)
(0.100415238 0.000266981159 0)
(0.100365774 0.000194018354 0)
(0.10038451 0.00024037044 0)
(0.100343445 0.000156387002 0)
(0.100358662 0.000200792107 0)
(0.10032768 0.00011583263 0)
(0.100339659 0.000153877559 0)
(0.100318827 7.9573703e-05 0)
(0.100328492 0.000107094603 0)
(0.100315839 5.56847423e-05 0)
(0.100324804 6.95863604e-05 0)
(0.100316129 5.18203956e-05 0)
(0.100326641 5.10106906e-05 0)
(0.100315546 7.34982674e-05 0)
(0.100330414 5.95378225e-05 0)
(0.100308969 0.000122563288 0)
(0.100331183 9.96908692e-05 0)
(0.100291273 0.000196511317 0)
(0.100323358 0.000170993719 0)
(0.100258162 0.000288967351 0)
(0.100301679 0.000267994541 0)
(0.100206759 0.000391070273 0)
(0.100262096 0.000381485474 0)
(0.100135912 0.000493240135 0)
(0.10020233 0.000500449369 0)
(0.100046189 0.000586800864 0)
(0.100122055 0.000614116783 0)
(0.0999396148 0.000665096875 0)
(0.100022731 0.000713589101 0)
(0.0998192414 0.00072398795 0)
(0.0999071855 0.00079273951 0)
(0.099688676 0.000761822579 0)
(0.0997790891 0.000848402208 0)
(0.099551663 0.000779109791 0)
(0.0996424616 0.000880070733 0)
(0.0994117575 0.000778124103 0)
(0.0995012687 0.000889404428 0)
(0.0992720801 0.00076260451 0)
(0.0993591248 0.000879798236 0)
(0.0991351066 0.000737579534 0)
(0.0992190582 0.000856138709 0)
(0.0990024516 0.000709216594 0)
(0.099083287 0.000824697532 0)
(0.098874639 0.000684513312 0)
(0.0989529797 0.000792966842 0)
(0.0987509134 0.000670664199 0)
(0.0988280244 0.000769187641 0)
(0.098629188 0.000674056849 0)
(0.0987068879 0.000761408669 0)
(0.0985062274 0.000699040891 0)
(0.0985866683 0.000776123347 0)
(0.0983781049 0.000746793125 0)
(0.0984634232 0.000816783999 0)
(0.0982408805 0.000814683339 0)
(0.098332779 0.000882667347 0)
(0.0980913596 0.00089646792 0)
(0.098190726 0.000968563739 0)
(0.0979277423 0.000983406007 0)
(0.0980344204 0.00106555637 0)
(0.0977499932 0.00106607871 0)
(0.0978627789 0.0011628077 0)
(0.0975598237 0.00113641723 0)
(0.0976766957 0.00124990604 0)
(0.0973602903 0.00118933345 0)
(0.0974788088 0.00131909171 0)
(0.0971551215 0.00122346202 0)
(0.0972728841 0.00136668758 0)
(0.0969479729 0.00124083297 0)
(0.097063002 0.00139332261 0)
(0.0967418216 0.00124567397 0)
(0.0968527887 0.00140296494 0)
(0.0965386516 0.00124282976 0)
(0.0966449017 0.00140119599 0)
(0.0963394664 0.0012363636 0)
(0.0964408748 0.00139338383 0)
(0.0961445526 0.00122875397 0)
(0.0962412944 0.00138336189 0)
(0.0959538483 0.00122080768 0)
(0.0960461712 0.00137293542 0)
(0.0957672677 0.00121212334 0)
(0.0958553385 0.00136217003 0)
(0.0955848927 0.00120177847 0)
(0.0956687396 0.0013501393 0)
(0.0954070128 0.00118892363 0)
(0.095486546 0.00133572282 0)
(0.095234059 0.00117310207 0)
(0.0953091308 0.00131814981 0)
(0.0950664982 0.00115428246 0)
(0.0951369624 0.00129718225 0)
(0.0949047463 0.00113271007 0)
(0.0949704935 0.00127301129 0)
(0.0947491243 0.0011087135 0)
(0.0948100895 0.00124602825 0)
(0.0945998567 0.00108256473 0)
(0.0946560084 0.00121661712 0)
(0.0944570933 0.00105442505 0)
(0.0945084155 0.0011850435 0)
(0.0943209366 0.00102435716 0)
(0.0943674141 0.00115143979 0)
(0.0941914615 0.000992364148 0)
(0.0942330705 0.00111584421 0)
(0.0940687269 0.000958423602 0)
(0.0941054315 0.00107824805 0)
(0.0939527815 0.00092250394 0)
(0.0939845318 0.00103862498 0)
(0.0938436686 0.000884565305 0)
(0.093870399 0.000996938687 0)
(0.0937414313 0.000844553846 0)
(0.093763059 0.000953137739 0)
(0.0936461204 0.000802396664 0)
(0.0936625426 0.000907148354 0)
(0.0935578026 0.000757999899 0)
(0.0935688938 0.000858870883 0)
(0.0934765682 0.000711248808 0)
(0.093482178 0.000808180477 0)
(0.0934025356 0.000662007585 0)
(0.0934024887 0.0007549297 0)
(0.0933358524 0.00061011747 0)
(0.0933299503 0.000698951107 0)
(0.0932766829 0.000555400567 0)
(0.0932647163 0.000640058439 0)
(0.0932251902 0.000497682023 0)
(0.0932069603 0.000578053338 0)
(0.0931815504 0.000436832516 0)