/*--------------------------------*- C++ -*----------------------------------*\
| =========                 |                                                 |
| \\      /  F ield         | OpenFOAM: The Open Source CFD Toolbox           |
|  \\    /   O peration     | Version:  v2012                                 |
|   \\  /    A nd           | Website:  www.openfoam.com                      |
|    \\/     M anipulation  |                                                 |
\*---------------------------------------------------------------------------*/
FoamFile
{
    version     2.0;
    format      ascii;
    class       volVectorField;
    location    "2.44";
    object      HbyA;
}
// * * * * * * * * * * * * * * * * * * * * * * * * * * * * * * * * * * * * * //

dimensions      [0 1 -1 0 0 0 0];


internalField   nonuniform List<vector> 
28416
(
(0.0999989524 1.21179795e-05 0)
(0.099986886 4.11417219e-05 0)
(0.0999595874 7.45081056e-05 0)
(0.0999160875 0.00010925357 0)
(0.0998582119 0.000141353341 0)
(0.0997886332 0.000167348597 0)
(0.0997102922 0.000184721595 0)
(0.099626589 0.000192059547 0)
(0.0995412381 0.000189279928 0)
(0.0994577841 0.000177418411 0)
(0.0993793088 0.000157997255 0)
(0.0993084651 0.000132625438 0)
(0.0992475426 0.000103250002 0)
(0.0991982684 7.2720803e-05 0)
(0.0991612981 4.49779197e-05 0)
(0.0991355939 2.44538123e-05 0)
(0.0991180522 1.50257705e-05 0)
(0.0991040894 1.90694653e-05 0)
(0.0990886701 3.65378669e-05 0)
(0.0990666825 6.52329934e-05 0)
(0.0990342377 0.000101761113 0)
(0.0989902992 0.000141765958 0)
(0.0989359903 0.000180350803 0)
(0.0988732184 0.000213120743 0)
(0.0988044785 0.000236855818 0)
(0.0987328609 0.000249603156 0)
(0.098661616 0.000250626582 0)
(0.0985937627 0.000240353951 0)
(0.0985319677 0.000220270113 0)
(0.0984784928 0.000192784676 0)
(0.0984350669 0.000161122426 0)
(0.0984026983 0.000129202306 0)
(0.0983815406 0.00010140354 0)
(0.0983705337 8.20621098e-05 0)
(0.0983672246 7.49482093e-05 0)
(0.0983682544 8.25579594e-05 0)
(0.0983699008 0.000105350589 0)
(0.0983686114 0.000141473099 0)
(0.0983616038 0.00018696862 0)
(0.0983473309 0.000236555866 0)
(0.0983256827 0.000284789329 0)
(0.0982978349 0.000327256122 0)
(0.0982657924 0.000361441122 0)
(0.0982317789 0.000387002786 0)
(0.0981976685 0.000405413749 0)
(0.0981646205 0.000419149851 0)
(0.0981329913 0.000430758709 0)
(0.0981024893 0.000442139573 0)
(0.0980724636 0.000454229388 0)
(0.0980421956 0.000467094234 0)
(0.0980110976 0.000480269461 0)
(0.0979787863 0.000493139729 0)
(0.0979450561 0.000505201764 0)
(0.0979098066 0.000516156297 0)
(0.0978729756 0.000525867548 0)
(0.097834503 0.000534269374 0)
(0.0977943276 0.000541285964 0)
(0.0977524037 0.000546797169 0)
(0.0977087192 0.000550643443 0)
(0.0976633089 0.000552649019 0)
(0.0976162585 0.000552643992 0)
(0.0975677044 0.000550476546 0)
(0.0975178307 0.00054601606 0)
(0.0974668669 0.000539151796 0)
(0.0974150858 0.000529791243 0)
(0.0973628014 0.0005178598 0)
(0.0973103656 0.000503301683 0)
(0.0972581645 0.000486081437 0)
(0.0972066139 0.000466185677 0)
(0.0971561553 0.000443624948 0)
(0.0971072519 0.000418435613 0)
(0.0970603868 0.000390681391 0)
(0.0970160613 0.000360453802 0)
(0.0969747957 0.000327871174 0)
(0.0969371291 0.000293074553 0)
(0.0969036197 0.000256221574 0)
(0.0968748452 0.000217474898 0)
(0.0968513833 0.00017698476 0)
(0.0968337691 0.000134891601 0)
(0.0968224503 9.13475297e-05 0)
(0.0968176709 4.65553404e-05 0)
(0.0968194195 9.82407683e-07 0)
(0.0968289307 -4.46155263e-05 0)
(0.0968474053 -9.06688468e-05 0)
(0.096874614 -0.00013719504 0)
(0.0969105209 -0.000183904949 0)
(0.0969552866 -0.000230503629 0)
(0.0970089564 -0.00027669088 0)
(0.097071463 -0.000322138126 0)
(0.0971426665 -0.000366501752 0)
(0.097222336 -0.000409428246 0)
(0.0973101395 -0.000450552866 0)
(0.0974056508 -0.000489503493 0)
(0.0975083572 -0.000525909817 0)
(0.0976176665 -0.000559415678 0)
(0.0977329157 -0.000589692941 0)
(0.0978533789 -0.000616454774 0)
(0.0979782767 -0.000639466211 0)
(0.0981067849 -0.000658550958 0)
(0.0982380459 -0.000673594603 0)
(0.0983711814 -0.000684545066 0)
(0.098505307 -0.000691411209 0)
(0.0986395466 -0.000694260251 0)
(0.0987730474 -0.000693214262 0)
(0.0989049937 -0.000688445683 0)
(0.0990346189 -0.000680171849 0)
(0.099161215 -0.000668648537 0)
(0.0992841412 -0.000654162733 0)
(0.099402829 -0.000637024922 0)
(0.0995167862 -0.000617561231 0)
(0.0996255981 -0.000596105766 0)
(0.0997289274 -0.000572993437 0)
(0.0998265115 -0.000548553467 0)
(0.0999181587 -0.00052310367 0)
(0.100003741 -0.000496945154 0)
(0.100083187 -0.000470357273 0)
(0.100156461 -0.000443590714 0)
(0.100223572 -0.000416853448 0)
(0.100284626 -0.000390311539 0)
(0.10033983 -0.000364118025 0)
(0.100389423 -0.000338423109 0)
(0.100433642 -0.000313361017 0)
(0.100472726 -0.000289043707 0)
(0.100506913 -0.000265556519 0)
(0.100536455 -0.000242946071 0)
(0.10056163 -0.000221241493 0)
(0.100582729 -0.000200464785 0)
(0.100600043 -0.000180630695 0)
(0.100613857 -0.000161746048 0)
(0.10062445 -0.000143809671 0)
(0.100632092 -0.000126811052 0)
(0.100637036 -0.000110725847 0)
(0.100639526 -9.55177009e-05 0)
(0.100639801 -8.11401741e-05 0)
(0.1006381 -6.75399391e-05 0)
(0.100634677 -5.4664157e-05 0)
(0.100629803 -4.24740794e-05 0)
(0.100623785 -3.09709268e-05 0)
(0.100616938 -2.02390107e-05 0)
(0.100609569 -1.05414668e-05 0)
(0.100601699 -2.14218716e-06 0)
(0.100592949 4.99442101e-06 0)
(0.100583025 1.11134718e-05 0)
(0.100571965 1.64580276e-05 0)
(0.100559977 2.11924047e-05 0)
(0.100547292 2.54026288e-05 0)
(0.100534062 2.91421398e-05 0)
(0.100520383 3.24637166e-05 0)
(0.100506346 3.54177957e-05 0)
(0.100492043 3.80454135e-05 0)
(0.100477561 4.03786979e-05 0)
(0.100462975 4.24426177e-05 0)
(0.100448352 4.42555438e-05 0)
(0.10043375 4.58307753e-05 0)
(0.100419217 4.71789977e-05 0)
(0.10040479 4.83102597e-05 0)
(0.100390501 4.9235089e-05 0)
(0.100376376 4.99650249e-05 0)
(0.100362437 5.05127235e-05 0)
(0.100348701 5.0891724e-05 0)
(0.100335186 5.11160324e-05 0)
(0.100321907 5.11996663e-05 0)
(0.100308876 5.11562329e-05 0)
(0.100296108 5.0998563e-05 0)
(0.100283613 5.07384222e-05 0)
(0.100271403 5.03863265e-05 0)
(0.100259487 4.99514733e-05 0)
(0.100247874 4.94417716e-05 0)
(0.10023657 4.88639543e-05 0)
(0.100225582 4.82237508e-05 0)
(0.100214915 4.75260982e-05 0)
(0.100204571 4.67753635e-05 0)
(0.100194553 4.59755503e-05 0)
(0.100184863 4.51304674e-05 0)
(0.100175501 4.42438477e-05 0)
(0.100166467 4.33194127e-05 0)
(0.100157761 4.23608837e-05 0)
(0.100149383 4.13719516e-05 0)
(0.100141333 4.03562149e-05 0)
(0.10013361 3.93171011e-05 0)
(0.100126215 3.82577859e-05 0)
(0.100119147 3.71811132e-05 0)
(0.100112409 3.608956e-05 0)
(0.100105999 3.49850061e-05 0)
(0.100099926 3.38693092e-05 0)
(0.100094169 3.27407936e-05 0)
(0.100088823 3.16087819e-05 0)
(0.100083589 3.04214989e-05 0)
(0.10007962 2.93921927e-05 0)
(0.100073295 2.74549723e-05 0)
(0.0999996986 2.21756843e-05 0)
(0.0999916898 7.79679908e-05 0)
(0.0999688334 0.000141771532 0)
(0.0999279652 0.000206907635 0)
(0.0998704671 0.000266306879 0)
(0.0997993327 0.000314235134 0)
(0.0997178488 0.000346624739 0)
(0.0996298034 0.000361322685 0)
(0.0995394373 0.000358355835 0)
(0.0994509015 0.000339471949 0)
(0.0993678653 0.000307075612 0)
(0.0992935004 0.000263622571 0)
(0.0992305029 0.000212127017 0)
(0.099180814 0.000157235221 0)
(0.0991450292 0.00010569306 0)
(0.0991219012 6.54943214e-05 0)
(0.0991083132 4.39460664e-05 0)
(0.0990994999 4.56375314e-05 0)
(0.0990900287 7.10166368e-05 0)
(0.0990747699 0.000116088899 0)
(0.0990492342 0.000174080266 0)
(0.0990105624 0.000236949472 0)
(0.0989583451 0.000296500067 0)
(0.0988942636 0.00034577683 0)
(0.0988213559 0.000379970525 0)
(0.09874349 0.000396477176 0)
(0.0986648648 0.000394607894 0)
(0.0985895446 0.000375279117 0)
(0.0985211814 0.000340747347 0)
(0.0984628731 0.000294454767 0)
(0.0984170192 0.000241008965 0)
(0.0983851048 0.000186172925 0)
(0.0983674279 0.000136638986 0)
(0.0983628125 9.93282154e-05 0)
(0.0983685006 8.04673546e-05 0)
(0.0983803465 8.43027216e-05 0)
(0.0983933974 0.000111793692 0)
(0.0984027008 0.000160034176 0)
(0.0984041408 0.000222673702 0)
(0.0983952302 0.000291260655 0)
(0.0983755357 0.000357157607 0)
(0.0983465753 0.00041348831 0)
(0.0983112273 0.000456516608 0)
(0.0982728472 0.000486043129 0)
(0.0982343772 0.000504763752 0)
(0.0981977219 0.000516907774 0)
(0.0981635407 0.000526705382 0)
(0.098131444 0.000537226169 0)
(0.0981004354 0.000549901051 0)
(0.0980693873 0.00056471548 0)
(0.0980373811 0.000580804926 0)
(0.0980038412 0.000597100546 0)
(0.0979684955 0.000612763896 0)
(0.0979312517 0.000627326841 0)
(0.0978920779 0.000640607807 0)
(0.0978509338 0.000652542172 0)
(0.0978077613 0.000663042607 0)
(0.0977625071 0.000671939025 0)
(0.097715154 0.000678987511 0)
(0.0976657409 0.000683910403 0)
(0.0976143693 0.000686433948 0)
(0.0975612008 0.000686308722 0)
(0.0975064512 0.000683314469 0)
(0.0974503854 0.000677257769 0)
(0.0973933145 0.000667969639 0)
(0.0973355923 0.000655305795 0)
(0.0972776131 0.000639148972 0)
(0.0972198072 0.000619411641 0)
(0.0971626373 0.000596037946 0)
(0.0971065941 0.000569004481 0)
(0.097052192 0.000538320085 0)
(0.096999966 0.000504024939 0)
(0.0969504676 0.000466189026 0)
(0.0969042617 0.000424910101 0)
(0.0968619221 0.000380310601 0)
(0.0968240249 0.000332533964 0)
(0.0967911376 0.000281739469 0)
(0.0967638144 0.000228095655 0)
(0.0967425943 0.000171786497 0)
(0.0967280065 0.000113044334 0)
(0.0967207122 5.21961675e-05 0)
(0.0967214644 -1.03537055e-05 0)
(0.0967305446 -7.3937754e-05 0)
(0.0967482094 -0.000138524911 0)
(0.0967749669 -0.000203879037 0)
(0.0968110726 -0.000269584048 0)
(0.0968566688 -0.000335210171 0)
(0.0969118336 -0.000400305113 0)
(0.0969765494 -0.000464371537 0)
(0.0970506986 -0.000526881542 0)
(0.0971340597 -0.000587290388 0)
(0.0972263012 -0.000645045157 0)
(0.0973269834 -0.000699596718 0)
(0.0974355626 -0.000750413814 0)
(0.0975513974 -0.000796996973 0)
(0.097673756 -0.000838891959 0)
(0.0978018265 -0.000875702428 0)
(0.0979347276 -0.000907101109 0)
(0.0980715224 -0.00093283892 0)
(0.0982112334 -0.000952751675 0)
(0.09835286 -0.000966764056 0)
(0.0984953963 -0.00097489059 0)
(0.0986378504 -0.000977233665 0)
(0.0987792611 -0.000973978776 0)
(0.0989187151 -0.000965387341 0)
(0.0990553607 -0.000951787582 0)
(0.0991884195 -0.000933563957 0)
(0.0993171951 -0.000911145661 0)
(0.0994410795 -0.000884994722 0)
(0.0995595561 -0.000855594128 0)
(0.0996722008 -0.000823436418 0)
(0.0997786802 -0.000789013079 0)
(0.0998787479 -0.000752804963 0)
(0.0999722397 -0.000715273777 0)
(0.100059066 -0.000676854316 0)
(0.100139206 -0.000637947251 0)
(0.1002127 -0.000598910611 0)
(0.100279645 -0.000560044715 0)
(0.100340203 -0.000521594107 0)
(0.100394592 -0.000483780785 0)
(0.100443066 -0.000446815558 0)
(0.100485899 -0.00041088266 0)
(0.100523381 -0.000376133079 0)
(0.100555821 -0.000342681762 0)
(0.100583532 -0.00031060149 0)
(0.100606818 -0.000279938455 0)
(0.100625984 -0.000250721881 0)
(0.100641335 -0.000222966146 0)
(0.100653175 -0.000196671806 0)
(0.100661801 -0.000171827162 0)
(0.100667507 -0.00014841092 0)
(0.100670579 -0.000126395746 0)
(0.100671284 -0.000105743827 0)
(0.100669881 -8.64070778e-05 0)
(0.100666619 -6.83320793e-05 0)
(0.100661732 -5.14701742e-05 0)
(0.10065543 -3.57970132e-05 0)
(0.100647878 -2.13355942e-05 0)
(0.100639087 -8.0562783e-06 0)
(0.100629158 4.0827287e-06 0)
(0.100618454 1.48668367e-05 0)
(0.100607185 2.42003082e-05 0)
(0.100595296 3.22517015e-05 0)
(0.100582731 3.92553339e-05 0)
(0.100569519 4.53990848e-05 0)
(0.100555762 5.07959266e-05 0)
(0.100541576 5.55160783e-05 0)
(0.100527055 5.96248693e-05 0)
(0.100512274 6.31861737e-05 0)
(0.100497306 6.62547704e-05 0)
(0.100482221 6.88773688e-05 0)
(0.100467079 7.10955991e-05 0)
(0.100451935 7.29460792e-05 0)
(0.100436839 7.44604121e-05 0)
(0.100421833 7.56662465e-05 0)
(0.100406956 7.65882471e-05 0)
(0.10039224 7.72486572e-05 0)
(0.100377713 7.76678177e-05 0)
(0.100363399 7.78647074e-05 0)
(0.100349318 7.78573437e-05 0)
(0.100335486 7.76629626e-05 0)
(0.100321919 7.72980352e-05 0)
(0.100308629 7.67782149e-05 0)
(0.100295627 7.61182578e-05 0)
(0.100282923 7.53319332e-05 0)
(0.100270523 7.44319466e-05 0)
(0.100258437 7.34298971e-05 0)
(0.100246669 7.23362782e-05 0)
(0.100235225 7.11605191e-05 0)
(0.100224109 6.9911059e-05 0)
(0.100213323 6.85954442e-05 0)
(0.100202871 6.72204377e-05 0)
(0.100192754 6.57921319e-05 0)
(0.100182973 6.43160511e-05 0)
(0.100173528 6.27972408e-05 0)
(0.10016442 6.1240336e-05 0)
(0.100155647 5.96496072e-05 0)
(0.10014721 5.80289843e-05 0)
(0.100139107 5.63820608e-05 0)
(0.100131339 5.47120795e-05 0)
(0.100123904 5.3021902e-05 0)
(0.100116802 5.13139494e-05 0)
(0.100110034 4.95901689e-05 0)
(0.100103598 4.7851712e-05 0)
(0.100097501 4.6099661e-05 0)
(0.100091717 4.43302489e-05 0)
(0.100086342 4.25554413e-05 0)
(0.100081052 4.0700654e-05 0)
(0.100077029 3.90857752e-05 0)
(0.100070407 3.61482157e-05 0)
(0.0999993193 2.40816053e-05 0)
(0.0999895806 8.85063205e-05 0)
(0.0999651922 0.00016338282 0)
(0.0999236477 0.000239664209 0)
(0.0998662098 0.000309220759 0)
(0.0997956147 0.000365627824 0)
(0.0997149516 0.000404175767 0)
(0.0996278161 0.00042230117 0)
(0.0995382546 0.000419952164 0)
(0.0994502529 0.000399025696 0)
(0.0993673459 0.000362131111 0)
(0.0992925859 0.000311923283 0)
(0.0992286027 0.00025173782 0)
(0.099177422 0.000186886242 0)
(0.0991399679 0.000125231272 0)
(0.0991154049 7.62161455e-05 0)
(0.09910074 4.85727172e-05 0)
(0.099091186 4.77770804e-05 0)
(0.0990808412 7.46640689e-05 0)
(0.0990639843 0.000125188313 0)
(0.0990366059 0.000191405969 0)
(0.0989968135 0.000263545263 0)
(0.0989445957 0.000331978655 0)
(0.0988814846 0.000388602971 0)
(0.0988101773 0.000427684827 0)
(0.0987341594 0.000446088263 0)
(0.098657296 0.000443013379 0)
(0.0985834325 0.000419556788 0)
(0.0985161116 0.000378320977 0)
(0.0984583922 0.000323196134 0)
(0.098412675 0.000259333104 0)
(0.0983804751 0.000193166451 0)
(0.0983621544 0.000132220743 0)
(0.098356678 8.4449891e-05 0)
(0.0983615012 5.70675958e-05 0)
(0.0983726954 5.50339274e-05 0)
(0.0983854608 7.97849845e-05 0)
(0.0983949957 0.000128507654 0)
(0.098397359 0.000194324961 0)
(0.098390107 0.000267644896 0)
(0.0983726548 0.000338363501 0)
(0.0983462301 0.00039822258 0)
(0.0983133849 0.000442578019 0)
(0.0982772071 0.000471024924 0)
(0.0982404919 0.000486736457 0)
(0.0982051284 0.000494855151 0)
(0.0981718617 0.0005006049 0)
(0.0981404317 0.000507817178 0)
(0.0981099597 0.000518293762 0)
(0.0980793881 0.000532018444 0)
(0.0980478114 0.000547893809 0)
(0.0980146226 0.000564559368 0)
(0.0979794982 0.00058095201 0)
(0.0979422953 0.00059649189 0)
(0.0979029435 0.000610977738 0)
(0.0978613801 0.000624366605 0)
(0.0978175358 0.000636589129 0)
(0.0977713537 0.000647467441 0)
(0.0977228169 0.000656723998 0)
(0.0976719674 0.000664032583 0)
(0.0976189134 0.000669067201 0)
(0.097563827 0.000671528733 0)
(0.0975069394 0.000671151011 0)
(0.0974485355 0.000667697249 0)
(0.0973889499 0.000660956228 0)
(0.0973285634 0.00065074195 0)
(0.0972677991 0.000636896081 0)
(0.0972071172 0.000619291151 0)
(0.0971470102 0.000597833077 0)
(0.0970879968 0.000572462673 0)
(0.0970306173 0.000543156379 0)
(0.09697543 0.000509926362 0)
(0.0969230077 0.000472819948 0)
(0.0968739353 0.000431918169 0)
(0.0968288081 0.000387334068 0)
(0.0967882284 0.000339210344 0)
(0.0967528031 0.000287719536 0)
(0.0967231399 0.000233068123 0)
(0.0966998496 0.000175497608 0)
(0.0966835331 0.000115285493 0)
(0.0966745813 5.27287631e-05 0)
(0.0966732913 -1.19168915e-05 0)
(0.0966804309 -7.84338069e-05 0)
(0.096696735 -0.000146412548 0)
(0.0967224721 -0.000215499808 0)
(0.0967578746 -0.000285289788 0)
(0.0968031682 -0.000355303317 0)
(0.096858481 -0.000425014898 0)
(0.096923829 -0.000493858918 0)
(0.0969991232 -0.000561235785 0)
(0.0970841637 -0.000626521942 0)
(0.0971786314 -0.000689079649 0)
(0.097282087 -0.000748269227 0)
(0.0973939729 -0.000803464661 0)
(0.097513617 -0.000854071238 0)
(0.0976402404 -0.000899543931 0)
(0.0977729679 -0.000939405131 0)
(0.097910842 -0.000973260141 0)
(0.0980528397 -0.00100080916 0)
(0.0981978913 -0.00102185533 0)
(0.0983449021 -0.00103630874 0)
(0.0984927732 -0.00104418665 0)
(0.0986404236 -0.00104561035 0)
(0.0987868103 -0.00104079884 0)
(0.0989309469 -0.00103005987 0)
(0.0990719193 -0.00101377868 0)
(0.0992088988 -0.000992405003 0)
(0.0993411517 -0.000966438883 0)
(0.0994680452 -0.000936416126 0)
(0.0995890508 -0.000902893822 0)
(0.0997037442 -0.000866436581 0)
(0.0998118028 -0.000827603893 0)
(0.0999130003 -0.000786938891 0)
(0.100007201 -0.00074495861 0)
(0.10009435 -0.000702145812 0)
(0.100174467 -0.000658942302 0)
(0.100247638 -0.000615743804 0)
(0.100314004 -0.000572896203 0)
(0.100373766 -0.00053069648 0)
(0.100427173 -0.000489400505 0)
(0.100474511 -0.00044922754 0)
(0.100516086 -0.000410359173 0)
(0.10055222 -0.000372940114 0)
(0.100583243 -0.000337081723 0)
(0.100609487 -0.000302869971 0)
(0.100631281 -0.000270360616 0)
(0.100648953 -0.00023958103 0)
(0.100662826 -0.000210535808 0)
(0.100673219 -0.000183211424 0)
(0.100680433 -0.000157580293 0)
(0.100684757 -0.000133605982 0)
(0.100686464 -0.000111250186 0)
(0.100685821 -9.04711592e-05 0)
(0.100683084 -7.12248799e-05 0)
(0.100678494 -5.34670468e-05 0)
(0.100672271 -3.71506052e-05 0)
(0.100664604 -2.22086069e-05 0)
(0.100655805 -8.53447695e-06 0)
(0.100646265 3.88079637e-06 0)
(0.100636008 1.51975712e-05 0)
(0.100624896 2.55025978e-05 0)
(0.100612991 3.47446615e-05 0)
(0.100600378 4.29191783e-05 0)
(0.100587116 5.00911168e-05 0)
(0.100573274 5.63631753e-05 0)
(0.100558945 6.18373388e-05 0)
(0.100544229 6.65943024e-05 0)
(0.100529213 7.07028014e-05 0)
(0.100513976 7.42280715e-05 0)
(0.100498591 7.72288687e-05 0)
(0.100483128 7.97551277e-05 0)
(0.100467652 8.18493694e-05 0)
(0.100452218 8.35483859e-05 0)
(0.100436874 8.48845274e-05 0)
(0.100421658 8.58870529e-05 0)
(0.100406603 8.65832104e-05 0)
(0.100391735 8.69987811e-05 0)
(0.100377076 8.71582487e-05 0)
(0.100362645 8.70848083e-05 0)
(0.100348459 8.68003203e-05 0)
(0.100334532 8.63252543e-05 0)
(0.100320878 8.56786439e-05 0)
(0.100307507 8.48780546e-05 0)
(0.100294432 8.39395609e-05 0)
(0.100281661 8.28777436e-05 0)
(0.100269202 8.17057189e-05 0)
(0.100257063 8.04351994e-05 0)
(0.10024525 7.90765847e-05 0)
(0.100233767 7.7639081e-05 0)
(0.100222618 7.61308402e-05 0)
(0.100211806 7.45591093e-05 0)
(0.100201332 7.29303818e-05 0)
(0.100191198 7.12505373e-05 0)
(0.100181404 6.95249559e-05 0)
(0.100171949 6.77586042e-05 0)
(0.100162832 6.59560875e-05 0)
(0.100154053 6.41216712e-05 0)
(0.100145611 6.22592779e-05 0)
(0.100137504 6.03724681e-05 0)
(0.100129732 5.84644041e-05 0)
(0.100122293 5.65378066e-05 0)
(0.100115187 5.45948891e-05 0)
(0.100108414 5.26373305e-05 0)
(0.100101971 5.06659798e-05 0)
(0.100095865 4.86817174e-05 0)
(0.100090071 4.66805136e-05 0)
(0.10008468 4.46766141e-05 0)
(0.100079378 4.25899072e-05 0)
(0.100075342 4.07838547e-05 0)
(0.100068824 3.75353997e-05 0)
(0.099999582 3.00511869e-05 0)
(0.0999911299 0.000111818049 0)
(0.0999681708 0.000208157386 0)
(0.0999275173 0.000306886355 0)
(0.0998700333 0.000397151575 0)
(0.0997983513 0.000470604114 0)
(0.0997156545 0.000521156652 0)
(0.0996257506 0.000545433494 0)
(0.0995329984 0.000543270376 0)
(0.0994417825 0.000517043752 0)
(0.0993560794 0.000470107742 0)
(0.0992793685 0.000405911399 0)
(0.0992146052 0.000328752624 0)
(0.0991639009 0.000245381477 0)
(0.0991279215 0.000165747335 0)
(0.0991053812 0.000101777715 0)
(0.0990929699 6.46263844e-05 0)
(0.0990858527 6.15597889e-05 0)
(0.0990785856 9.36978354e-05 0)
(0.0990656081 0.000155994643 0)
(0.0990419328 0.000238700968 0)
(0.0990044777 0.000329533508 0)
(0.0989526399 0.000416100732 0)
(0.0988879531 0.000487922427 0)
(0.0988135033 0.000537600988 0)
(0.0987333401 0.000561093817 0)
(0.0986519278 0.000557349832 0)
(0.0985736993 0.000527703495 0)
(0.0985027435 0.000475347967 0)
(0.0984425857 0.000405067916 0)
(0.0983959776 0.000323243214 0)
(0.0983646381 0.00023792602 0)
(0.0983489454 0.000158636999 0)
(0.0983476523 9.55532529e-05 0)
(0.0983577749 5.80202158e-05 0)
(0.0983749198 5.26872745e-05 0)
(0.0983939347 8.16369852e-05 0)
(0.0984095243 0.000141165187 0)
(0.0984170808 0.000222383576 0)
(0.098413671 0.000313061713 0)
(0.0983985707 0.000400381897 0)
(0.0983731705 0.000473897798 0)
(0.0983403735 0.000527756601 0)
(0.0983036866 0.000561475349 0)
(0.0982662826 0.00057909969 0)
(0.0982303154 0.000587173525 0)
(0.0981966539 0.000592354782 0)
(0.0981650371 0.000599546843 0)
(0.0981345006 0.000611080673 0)
(0.0981038642 0.000626970578 0)
(0.0980721016 0.000645840642 0)
(0.098038509 0.000665962648 0)
(0.0980026951 0.000685973879 0)
(0.0979644724 0.000705122052 0)
(0.0979237412 0.000723139578 0)
(0.0978804168 0.000739966912 0)
(0.0978344128 0.000755517035 0)
(0.0977856607 0.000769568153 0)
(0.0977341382 0.000781771818 0)
(0.0976798901 0.000791715804 0)
(0.0976230353 0.000798985661 0)
(0.0975637649 0.000803198884 0)
(0.0975023353 0.000804013233 0)
(0.0974390621 0.00080112275 0)
(0.0973743148 0.000794253382 0)
(0.0973085125 0.00078316296 0)
(0.0972421193 0.000767644666 0)
(0.0971756395 0.000747531156 0)
(0.0971096124 0.000722697277 0)
(0.0970446075 0.000693060724 0)
(0.0969812192 0.000658581053 0)
(0.0969200618 0.000619257761 0)
(0.0968617639 0.000575128003 0)
(0.0968069637 0.000526264471 0)
(0.0967563042 0.000472773593 0)
(0.0967104286 0.000414794316 0)
(0.0966699766 0.000352497045 0)
(0.0966355792 0.000286082442 0)
(0.096607855 0.000215780137 0)
(0.0965874031 0.000141844353 0)
(0.0965748883 6.45656005e-05 0)
(0.0965710116 -1.55905463e-05 0)
(0.0965762467 -9.80725131e-05 0)
(0.0965909929 -0.000182495398 0)
(0.096615728 -0.000268394473 0)
(0.0966508313 -0.000355206661 0)
(0.0966965735 -0.000442317043 0)
(0.0967531317 -0.000529059915 0)
(0.0968205767 -0.000614713601 0)
(0.0968988602 -0.000698510113 0)
(0.096987804 -0.000779650702 0)
(0.0970870913 -0.000857321994 0)
(0.0971962628 -0.000930714187 0)
(0.0973147168 -0.000999041308 0)
(0.0974417141 -0.0010615621 0)
(0.0975763866 -0.00111760056 0)
(0.0977177508 -0.0011665656 0)
(0.097864725 -0.00120796885 0)
(0.0980161498 -0.00124143969 0)
(0.0981708115 -0.00126673636 0)
(0.0983274675 -0.00128375255 0)
(0.098484873 -0.00129251905 0)
(0.0986418066 -0.00129320016 0)
(0.0987970953 -0.00128608563 0)
(0.0989496369 -0.00127157843 0)
(0.0990984182 -0.00125017951 0)
(0.0992425306 -0.00122247021 0)
(0.0993811799 -0.00118909354 0)
(0.0995136935 -0.00115073497 0)
(0.0996395219 -0.00110810376 0)
(0.0997582382 -0.00106191528 0)
(0.0998695335 -0.00101287509 0)
(0.0999732094 -0.000961665013 0)
(0.10006917 -0.000908931335 0)
(0.100157412 -0.000855275356 0)
(0.100238012 -0.000801246113 0)
(0.100311119 -0.000747335186 0)
(0.100376943 -0.000693973488 0)
(0.100435749 -0.00064153168 0)
(0.100487841 -0.000590325219 0)
(0.100533559 -0.000540619405 0)
(0.100573261 -0.000492631677 0)
(0.100607318 -0.000446533911 0)
(0.100636104 -0.000402455879 0)
(0.100659997 -0.00036048906 0)
(0.100679368 -0.000320689203 0)
(0.10069458 -0.000283080875 0)
(0.100705985 -0.000247663008 0)
(0.100713925 -0.000214413738 0)
(0.100718722 -0.000183294004 0)
(0.100720683 -0.000154249114 0)
(0.100720099 -0.000127207619 0)
(0.100717246 -0.000102086454 0)
(0.100712385 -7.87942176e-05 0)
(0.100705767 -5.72353529e-05 0)
(0.100697653 -3.73257883e-05 0)
(0.100688322 -1.90039231e-05 0)
(0.100677871 -2.22611538e-06 0)
(0.100666375 1.30132798e-05 0)
(0.100654022 2.66488691e-05 0)
(0.100640934 3.87787876e-05 0)
(0.100627215 4.95237181e-05 0)
(0.100612945 5.89887809e-05 0)
(0.100598192 6.7284511e-05 0)
(0.100583028 7.45267714e-05 0)
(0.100567529 8.08243443e-05 0)
(0.100551773 8.62703809e-05 0)
(0.100535835 9.09453606e-05 0)
(0.10051978 9.49227179e-05 0)
(0.100503664 9.82697258e-05 0)
(0.100487536 0.000101047158 0)
(0.100471443 0.000103309763 0)
(0.100455427 0.000105106241 0)
(0.100439529 0.000106479113 0)
(0.100423788 0.000107465477 0)
(0.100408235 0.000108098258 0)
(0.100392902 0.00010840727 0)
(0.100377813 0.000108419957 0)
(0.100362988 0.000108161944 0)
(0.100348445 0.000107657389 0)
(0.100334197 0.000106929099 0)
(0.100320256 0.000105998524 0)
(0.10030663 0.000104885711 0)
(0.100293328 0.000103609274 0)
(0.100280354 0.000102186376 0)
(0.100267715 0.000100632743 0)
(0.100255414 9.89626963e-05 0)
(0.100243454 9.71892079e-05 0)
(0.100231838 9.532398e-05 0)
(0.100220567 9.33775296e-05 0)
(0.100209643 9.13592811e-05 0)
(0.100199067 8.92776592e-05 0)
(0.100188839 8.71401831e-05 0)
(0.100178958 8.49535554e-05 0)
(0.100169424 8.27237508e-05 0)
(0.100160237 8.04560944e-05 0)
(0.100151396 7.8155328e-05 0)
(0.100142898 7.58256603e-05 0)
(0.100134743 7.3470798e-05 0)
(0.100126929 7.10939566e-05 0)
(0.100119454 6.86978586e-05 0)
(0.100112316 6.62847034e-05 0)
(0.100105516 6.3856185e-05 0)
(0.100099048 6.14131923e-05 0)
(0.100092919 5.89569332e-05 0)
(0.1000871 5.6483044e-05 0)
(0.100081686 5.40098515e-05 0)
(0.100076344 5.14412942e-05 0)
(0.100072278 4.92221787e-05 0)
(0.100065565 4.52479533e-05 0)
(0.0999995333 3.43078605e-05 0)
(0.0999908938 0.000130064361 0)
(0.0999676819 0.000243724991 0)
(0.0999266927 0.000360225449 0)
(0.0998688184 0.000466786737 0)
(0.0997967178 0.000553813816 0)
(0.0997135713 0.000614297596 0)
(0.0996231574 0.000644276175 0)
(0.0995297897 0.000643418507 0)
(0.0994378111 0.00061427691 0)
(0.0993511636 0.00056052616 0)
(0.0992732779 0.000485976857 0)
(0.0992070531 0.000395451344 0)
(0.0991546266 0.000296679991 0)
(0.0991168671 0.000201274768 0)
(0.0990928735 0.000123459368 0)
(0.099079689 7.67093334e-05 0)
(0.0990723296 6.99297455e-05 0)
(0.099064641 0.000104832805 0)
(0.0990508241 0.00017541501 0)
(0.0990264623 0.000269973817 0)
(0.0989888956 0.000374072955 0)
(0.0989374618 0.000473320197 0)
(0.098873454 0.000555576412 0)
(0.0987997226 0.000612240671 0)
(0.0987201352 0.000638559922 0)
(0.0986390498 0.000633235374 0)
(0.0985608722 0.000597721844 0)
(0.0984897283 0.000535596464 0)
(0.0984292232 0.000452243295 0)
(0.0983822141 0.000354879799 0)
(0.0983505379 0.000252690794 0)
(0.0983347043 0.000156652005 0)
(0.098333655 7.86460888e-05 0)
(0.0983447385 2.97261204e-05 0)
(0.0983637388 1.7660948e-05 0)
(0.0983850413 4.50243226e-05 0)
(0.0984029258 0.000108068294 0)
(0.0984128841 0.000196919178 0)
(0.0984120613 0.000297401603 0)
(0.0983996306 0.000394422953 0)
(0.0983768222 0.000475532544 0)
(0.0983464183 0.00053363445 0)
(0.0983118754 0.000568014409 0)
(0.0982763822 0.000583422216 0)
(0.0982421452 0.000587684131 0)
(0.0982100865 0.000588838288 0)
(0.0981799713 0.000592853398 0)
(0.0981508255 0.00060260142 0)
(0.0981214298 0.000618135695 0)
(0.0980907031 0.000637799914 0)
(0.0980578857 0.000659490482 0)
(0.0980225363 0.00068154025 0)
(0.0979844267 0.000703027928 0)
(0.0979434241 0.000723630947 0)
(0.0978994175 0.000743288159 0)
(0.0978523005 0.000761908858 0)
(0.0978019909 0.000779237751 0)
(0.0977484604 0.000794862383 0)
(0.097691756 0.00080828937 0)
(0.0976320079 0.000819020177 0)
(0.0975694265 0.000826593693 0)
(0.0975042961 0.000830596859 0)
(0.0974369676 0.000830659769 0)
(0.0973678524 0.000826449864 0)
(0.0972974172 0.000817671179 0)
(0.0972261777 0.000804067725 0)
(0.097154691 0.000785427756 0)
(0.0970835482 0.000761586674 0)
(0.0970133659 0.000732427973 0)
(0.0969447799 0.000697882783 0)
(0.0968784391 0.000657928571 0)
(0.0968150028 0.000612587319 0)
(0.0967551382 0.000561923346 0)
(0.0966995186 0.000506040993 0)
(0.0966488216 0.000445082528 0)
(0.0966037265 0.000379226939 0)
(0.096564911 0.000308691121 0)
(0.0965330488 0.000233733384 0)
(0.0965088058 0.000154657392 0)
(0.0964927946 7.18125767e-05 0)
(0.0964855823 -1.44635616e-05 0)
(0.096487827 -0.000103802269 0)
(0.0965001725 -0.000195709145 0)
(0.0965231147 -0.000289640525 0)
(0.0965570758 -0.000384986903 0)
(0.0966024063 -0.000481056398 0)
(0.0966593563 -0.00057708114 0)
(0.0967280566 -0.000672224907 0)
(0.0968085065 -0.00076559225 0)
(0.0969005613 -0.000856242081 0)
(0.0970039203 -0.000943205144 0)
(0.0971181191 -0.00102550568 0)
(0.0972425267 -0.00110218705 0)
(0.0973763472 -0.00117233986 0)
(0.0975186285 -0.00123513063 0)
(0.0976682761 -0.00128982915 0)
(0.0978240743 -0.00133583264 0)
(0.0979847113 -0.00137268528 0)
(0.0981488093 -0.00140009196 0)
(0.0983149561 -0.00141792583 0)
(0.0984817391 -0.00142622946 0)
(0.0986477767 -0.00142520967 0)
(0.0988117493 -0.00141522659 0)
(0.0989724255 -0.00139677772 0)
(0.0991286841 -0.00137047805 0)
(0.0992795314 -0.00133703739 0)
(0.0994241126 -0.00129723626 0)
(0.0995617182 -0.0012519016 0)
(0.0996917847 -0.00120188321 0)
(0.0998138922 -0.00114803204 0)
(0.0999277569 -0.0010911808 0)
(0.100033221 -0.00103212755 0)
(0.100130243 -0.00097162212 0)
(0.10021888 -0.000910355803 0)
(0.100299281 -0.00084895398 0)
(0.100371666 -0.000787971598 0)
(0.100436319 -0.000727891456 0)
(0.100493574 -0.000669125397 0)
(0.100543802 -0.00061201805 0)
(0.100587404 -0.000556851426 0)
(0.100624794 -0.000503849169 0)
(0.100656396 -0.000453181077 0)
(0.100682632 -0.000404968206 0)
(0.100703919 -0.000359288278 0)
(0.100720666 -0.000316180779 0)
(0.100733265 -0.000275652051 0)
(0.100742093 -0.000237680519 0)
(0.100747512 -0.000202221618 0)
(0.100749863 -0.000169212227 0)
(0.10074947 -0.000138574825 0)
(0.10074664 -0.00011022208 0)
(0.100741663 -8.40629872e-05 0)
(0.100734808 -6.00080218e-05 0)
(0.100726309 -3.79641289e-05 0)
(0.100716346 -1.78314837e-05 0)
(0.100705062 5.95758828e-07 0)
(0.100692704 1.73204435e-05 0)
(0.100679539 3.24175244e-05 0)
(0.100665695 4.59573411e-05 0)
(0.100651252 5.80342439e-05 0)
(0.100636276 6.87440956e-05 0)
(0.10062084 7.81781832e-05 0)
(0.100605017 8.64328284e-05 0)
(0.100588873 9.36059978e-05 0)
(0.100572474 9.97928588e-05 0)
(0.100555889 0.000105082002 0)
(0.100539182 0.000109553606 0)
(0.100522415 0.000113281026 0)
(0.100505647 0.000116332181 0)
(0.100488936 0.000118769861 0)
(0.10047233 0.000120652187 0)
(0.100455871 0.000122032995 0)
(0.100439594 0.00012296193 0)
(0.100423525 0.000123484345 0)
(0.100407689 0.000123641181 0)
(0.100392107 0.000123469112 0)
(0.100376794 0.000123000951 0)
(0.100361767 0.000122266184 0)