/*--------------------------------*- C++ -*----------------------------------*\
| =========                 |                                                 |
| \\      /  F ield         | OpenFOAM: The Open Source CFD Toolbox           |
|  \\    /   O peration     | Version:  v2012                                 |
|   \\  /    A nd           | Website:  www.openfoam.com                      |
|    \\/     M anipulation  |                                                 |
\*---------------------------------------------------------------------------*/
FoamFile
{
    version     2.0;
    format      ascii;
    class       surfaceScalarField;
    location    "2.44";
    object      phiHbyA;
}
// * * * * * * * * * * * * * * * * * * * * * * * * * * * * * * * * * * * * * //

dimensions      [0 3 -1 0 0 0 0];
oriented        oriented;


internalField   nonuniform List<scalar> 
56481
(
6.66622071e-07
1.06629257e-10
6.6648571e-07
3.59258494e-10
6.66248743e-07
6.46897784e-10
6.65913002e-07
9.41501645e-10
6.65489706e-07
1.21068816e-09
6.64996649e-07
1.42787949e-09
6.64456103e-07
1.57400875e-09
6.63892521e-07
1.63873174e-09
6.63329952e-07
1.62194291e-09
6.6279018e-07
1.53180968e-09
6.62292263e-07
1.37977985e-09
6.61852747e-07
1.17763651e-09
6.61485048e-07
9.39736233e-10
6.61197134e-07
6.87890079e-10
6.60988062e-07
4.53444526e-10
6.60844972e-07
2.73215199e-10
6.60742215e-07
1.80921357e-10
6.60644555e-07
1.98141469e-10
6.60517051e-07
3.25464463e-10
6.60333612e-07
5.43238626e-10
6.60079902e-07
8.20910779e-10
6.5975376e-07
1.12175642e-09
6.59363485e-07
1.40743969e-09
6.5892458e-07
1.64527123e-09
6.58456539e-07
1.81236518e-09
6.5798037e-07
1.89574295e-09
6.57516704e-07
1.89140614e-09
6.57084504e-07
1.8033642e-09
6.56700249e-07
1.64255339e-09
6.56377211e-07
1.42601674e-09
6.56124436e-07
1.1765634e-09
6.55945555e-07
9.22399726e-10
6.55838684e-07
6.95753557e-10
6.55791454e-07
5.29077978e-10
6.55783394e-07
4.51119288e-10
6.55792096e-07
4.80843629e-10
6.55793254e-07
6.23538885e-10
6.55765619e-07
8.65255514e-10
6.5569475e-07
1.17593356e-09
6.55575118e-07
1.51579075e-09
6.55410267e-07
1.84403327e-09
6.55210787e-07
2.12795875e-09
6.54990755e-07
2.34947077e-09
6.54763819e-07
2.50702865e-09
6.54540085e-07
2.61273643e-09
6.54324608e-07
2.68603586e-09
6.54117615e-07
2.74656555e-09
6.53915972e-07
2.80871774e-09
6.5371512e-07
2.87935449e-09
6.53510704e-07
2.95863576e-09
6.53299485e-07
3.04272688e-09
6.53079496e-07
3.12676343e-09
6.52849714e-07
3.20686758e-09
6.52609593e-07
3.28081899e-09
6.52358724e-07
3.34769619e-09
6.52096702e-07
3.40711528e-09
6.5182317e-07
3.45859586e-09
6.51537933e-07
3.50128695e-09
6.51241067e-07
3.53400624e-09
6.50932971e-07
3.55542281e-09
6.50614384e-07
3.56422998e-09
6.50286374e-07
3.55924035e-09
6.49950318e-07
3.53940859e-09
6.49607891e-07
3.50382264e-09
6.49261047e-07
3.4516911e-09
6.48912006e-07
3.38234514e-09
6.48563227e-07
3.29525066e-09
6.48217384e-07
3.19001579e-09
6.47877335e-07
3.06640745e-09
6.47546096e-07
2.92435893e-09
6.47226822e-07
2.76396998e-09
6.46922796e-07
2.58551287e-09
6.46637422e-07
2.3894278e-09
6.46374232e-07
2.17630847e-09
6.46136887e-07
1.94687713e-09
6.4592922e-07
1.70192382e-09
6.4575506e-07
1.44243841e-09
6.45618021e-07
1.16952035e-09
6.4552133e-07
8.84298915e-10
6.45467539e-07
5.88150082e-10
6.45458311e-07
2.82841064e-10
6.45493736e-07
-2.91964277e-11
6.45588349e-07
-3.48078818e-10
6.45740323e-07
-6.70201227e-10
6.45950492e-07
-9.95957383e-10
6.4621941e-07
-1.32328307e-09
6.46547484e-07
-1.65018263e-09
6.46934669e-07
-1.97446646e-09
6.47380328e-07
-2.29369742e-09
6.47883213e-07
-2.60531975e-09
6.48441438e-07
-2.90669786e-09
6.4905248e-07
-3.19513755e-09
6.49713212e-07
-3.46793105e-09
6.50419947e-07
-3.72242993e-09
6.51168501e-07
-3.95612236e-09
6.51954244e-07
-4.16670721e-09
6.52772155e-07
-4.3521759e-09
6.53616889e-07
-4.51087673e-09
6.54482836e-07
-4.64155482e-09
6.55364209e-07
-4.74338808e-09
6.56255131e-07
-4.81600074e-09
6.5714973e-07
-4.85945483e-09
6.58042244e-07
-4.87424512e-09
6.58927108e-07
-4.86126993e-09
6.59799048e-07
-4.82180191e-09
6.60653147e-07
-4.75743594e-09
6.61484909e-07
-4.67005159e-09
6.62290304e-07
-4.56174567e-09
6.63065795e-07
-4.43478369e-09
6.6380836e-07
-4.29153712e-09
6.64515494e-07
-4.13443194e-09
6.65185198e-07
-3.96588921e-09
6.6581596e-07
-3.78828471e-09
6.66406719e-07
-3.60390669e-09
6.66956809e-07
-3.41491079e-09
6.67465862e-07
-3.22328679e-09
6.67933767e-07
-3.03080894e-09
6.68360917e-07
-2.83893856e-09
6.68748397e-07
-2.64883838e-09
6.69097702e-07
-2.46158626e-09
6.6941039e-07
-2.27823318e-09
6.69688058e-07
-2.09969558e-09
6.69932303e-07
-1.92670145e-09
6.70144678e-07
-1.75978415e-09
6.70327009e-07
-1.59959614e-09
6.70481215e-07
-1.44643232e-09
6.70609226e-07
-1.30043056e-09
6.7071296e-07
-1.16166055e-09
6.70794299e-07
-1.03012615e-09
6.70855071e-07
-9.05768788e-10
6.7089702e-07
-7.88457848e-10
6.70921792e-07
-6.77982438e-10
6.70930979e-07
-5.74096663e-10
6.70926166e-07
-4.7652911e-10
6.70908989e-07
-3.85005732e-10
6.70881205e-07
-2.99296597e-10
6.70844754e-07
-2.19296436e-10
6.70801835e-07
-1.45186912e-10
6.70754621e-07
-7.73189883e-11
6.70704941e-07
-1.67735565e-11
6.70650073e-07
3.98412992e-11
6.70586997e-07
8.87911233e-11
6.70516276e-07
1.30540006e-10
6.70439365e-07
1.66832419e-10
6.70357329e-07
1.98753262e-10
6.70271075e-07
2.26891679e-10
6.70181399e-07
2.51625242e-10
6.70089011e-07
2.73315207e-10
6.69994551e-07
2.92301799e-10
6.69898609e-07
3.0886612e-10
6.69801722e-07
3.23240598e-10
6.69704367e-07
3.35623221e-10
6.69606958e-07
3.4617847e-10
6.69509841e-07
3.5504245e-10
6.69413306e-07
3.62332762e-10
6.69317587e-07
3.68155682e-10
6.69222874e-07
3.7261106e-10
6.69129326e-07
3.75795239e-10
6.69037077e-07
3.77802365e-10
6.68946243e-07
3.78725651e-10
6.6885693e-07
3.78656535e-10
6.68769232e-07
3.77684047e-10
6.68683237e-07
3.75892913e-10
6.68599029e-07
3.73363395e-10
6.68516681e-07
3.70169341e-10
6.68436262e-07
3.66378212e-10
6.68357833e-07
3.62050395e-10
6.68281445e-07
3.5723966e-10
6.68207142e-07
3.51992956e-10
6.68134959e-07
3.46351673e-10
6.68064922e-07
3.403525e-10
6.67997051e-07
3.34027828e-10
6.67931358e-07
3.27407194e-10
6.67867851e-07
3.2051803e-10
6.67806531e-07
3.13385747e-10
6.677474e-07
3.06034621e-10
6.67690455e-07
2.9848794e-10
6.67635696e-07
2.90767506e-10
6.67583119e-07
2.82894015e-10
6.67532726e-07
2.74886474e-10
6.67484517e-07
2.66762182e-10
6.67438496e-07
2.58535842e-10
6.67394669e-07
2.50219745e-10
6.67353047e-07
2.41822058e-10
6.67313646e-07
2.3334987e-10
6.67276496e-07
2.24785121e-10
6.67241626e-07
2.16183257e-10
6.67209177e-07
2.07165495e-10
6.67179009e-07
1.99222896e-10
1.84661471e-10
6.66645707e-07
1.28236648e-10
6.66536092e-07
4.69943733e-10
6.66319022e-07
8.65385306e-10
6.65992444e-07
1.26964773e-09
6.65565813e-07
1.63897524e-09
6.65057387e-07
1.93807332e-09
6.64491767e-07
2.14149434e-09
6.63896852e-07
2.23556329e-09
6.63300612e-07
2.22011606e-09
6.62728771e-07
2.10558228e-09
6.62204061e-07
1.90640427e-09
6.61746165e-07
1.63741328e-09
6.61370597e-07
1.31711848e-09
6.61085775e-07
9.7441821e-10
6.60889471e-07
6.51300451e-10
6.6076674e-07
3.97337935e-10
6.60691353e-07
2.57605036e-10
6.6063086e-07
2.59917901e-10
6.6054935e-07
4.08274471e-10
6.60412819e-07
6.8111307e-10
6.60197852e-07
1.03725842e-09
6.59894912e-07
1.42603965e-09
6.59507597e-07
1.79599341e-09
6.5905097e-07
2.10302152e-09
6.58548262e-07
2.31608921e-09
6.58026574e-07
2.41834546e-09
6.57513388e-07
2.40541272e-09
6.57034372e-07
2.28311084e-09
6.56612046e-07
2.0655235e-09
6.56264741e-07
1.77387776e-09
6.56005403e-07
1.43636997e-09
6.55839999e-07
1.08818507e-09
6.55765753e-07
7.70298119e-10
6.55769414e-07
5.25638151e-10
6.55827915e-07
3.92774803e-10
6.55910704e-07
3.98162282e-10
6.55985157e-07
5.49121579e-10
6.56021019e-07
8.29370004e-10
6.55996182e-07
1.20070541e-09
6.55900904e-07
1.6109714e-09
6.55738809e-07
2.00600206e-09
6.55524551e-07
2.34206054e-09
6.55278905e-07
2.59492792e-09
6.55022859e-07
2.76284815e-09
6.54772568e-07
2.86276002e-09
6.5453658e-07
2.92171631e-09
6.54315794e-07
2.96700589e-09
6.54105589e-07
3.01854463e-09
6.53898884e-07
3.08565594e-09
6.53688857e-07
3.16824033e-09
6.53470527e-07
3.26062438e-09
6.53241067e-07
3.3557889e-09
6.5299926e-07
3.44824364e-09
6.52744691e-07
3.53496829e-09
6.52477117e-07
3.61486749e-09
6.52196209e-07
3.68764404e-09
6.51901592e-07
3.75286026e-09
6.51593032e-07
3.80952714e-09
6.51270598e-07
3.85615479e-09
6.50934757e-07
3.89101513e-09
6.50586385e-07
3.9123915e-09
6.50226739e-07
3.91871458e-09
6.49857422e-07
3.90859278e-09
6.49480351e-07
3.88079592e-09
6.49097745e-07
3.83423508e-09
6.48712095e-07
3.76796325e-09
6.4832615e-07
3.68119088e-09
6.47942889e-07
3.57329662e-09
6.47565489e-07
3.44384639e-09
6.47197302e-07
3.29260045e-09
6.46841826e-07
3.11951088e-09
6.46502685e-07
2.92472605e-09
6.46183602e-07
2.70858539e-09
6.45888379e-07
2.47160594e-09
6.45620848e-07
2.21447573e-09
6.45384784e-07
1.93804535e-09
6.45183942e-07
1.64332226e-09
6.45022025e-07
1.33145559e-09
6.44902635e-07
1.00367784e-09
6.44829584e-07
6.61158033e-10
6.44807549e-07
3.04805049e-10
6.44840476e-07
-6.23794157e-11
6.4492914e-07
-4.36883553e-10
6.45077325e-07
-8.18574228e-10
6.45286781e-07
-1.20565248e-09
6.45559022e-07
-1.59581155e-09
6.45894835e-07
-1.98633689e-09
6.4629438e-07
-2.37441311e-09
6.46757216e-07
-2.75699791e-09
6.47282219e-07
-3.13085155e-09
6.47867543e-07
-3.49261509e-09
6.48510616e-07
-3.83887002e-09
6.49208163e-07
-4.16620002e-09
6.49956232e-07
-4.47128117e-09
6.50750244e-07
-4.75097376e-09
6.51585052e-07
-5.00240661e-09
6.5245501e-07
-5.22307107e-09
6.53354056e-07
-5.41089811e-09
6.54275806e-07
-5.56431059e-09
6.55213662e-07
-5.68227343e-09
6.56160936e-07
-5.7643168e-09
6.57110966e-07
-5.81053058e-09
6.58057238e-07
-5.82155919e-09
6.58993503e-07
-5.79856407e-09
6.59913877e-07
-5.74318322e-09
6.60812925e-07
-5.65746174e-09
6.61685731e-07
-5.54379907e-09
6.62527946e-07
-5.40486072e-09
6.63335824e-07
-5.24351291e-09
6.64106228e-07
-5.06274129e-09
6.64836634e-07
-4.86558396e-09
6.65525112e-07
-4.65505596e-09
6.66170293e-07
-4.43409736e-09
6.66771333e-07
-4.20552034e-09
6.67327863e-07
-3.97195711e-09
6.67839944e-07
-3.73582886e-09
6.68308036e-07
-3.49930828e-09
6.68733003e-07
-3.26426256e-09
6.6911612e-07
-3.0322642e-09
6.69458965e-07
-2.8046923e-09
6.69763288e-07
-2.5827728e-09
6.70030966e-07
-2.36754859e-09
6.7026399e-07
-2.15986436e-09
6.70464488e-07
-1.96038694e-09
6.70634461e-07
-1.76963793e-09
6.70775936e-07
-1.58793656e-09
6.70890961e-07
-1.41544672e-09
6.70981569e-07
-1.25222099e-09
6.71049755e-07
-1.09822775e-09
6.71097486e-07
-9.5338196e-10
6.71126725e-07
-8.1754383e-10
6.71139297e-07
-6.90362981e-10
6.71136953e-07
-5.7151267e-10
6.71121388e-07
-4.60667192e-10
6.71094227e-07
-3.57480953e-10
6.71056981e-07
-2.61615088e-10
6.71010955e-07
-1.72755145e-10
6.70956781e-07
-9.04225806e-11
6.7089367e-07
-1.3585523e-11
6.70824623e-07
5.28299383e-11
6.70752089e-07
1.12833691e-10
6.70675208e-07
1.66085316e-10
6.70593468e-07
2.12681129e-10
6.70507294e-07
2.53402495e-10
6.70417348e-07
2.89091163e-10
6.70324253e-07
3.20370773e-10
6.70228589e-07
3.47667506e-10
6.70130915e-07
3.71361798e-10
6.70031755e-07
3.9182747e-10
6.69931583e-07
4.09394223e-10
6.6983083e-07
4.24340573e-10
6.69729881e-07
4.36906034e-10
6.69629086e-07
4.47295827e-10
6.6952875e-07
4.55686172e-10
6.69429144e-07
4.62232797e-10
6.69330503e-07
4.6707761e-10
6.69233029e-07
4.70353518e-10
6.69136893e-07
4.72186713e-10
6.69042242e-07
4.72697311e-10
6.689492e-07
4.72000632e-10
6.68857873e-07
4.70206454e-10
6.68768352e-07
4.67418935e-10
6.68680713e-07
4.63735143e-10
6.68595026e-07
4.59245731e-10
6.68511348e-07
4.54033309e-10
6.6842973e-07
4.48173122e-10
6.68350217e-07
4.41732675e-10
6.68272846e-07
4.3477253e-10
6.68197646e-07
4.27346092e-10
6.68124642e-07
4.19500975e-10
6.68053852e-07
4.11279751e-10
6.6798529e-07
4.02720119e-10
6.67918964e-07
3.93856331e-10
6.67854879e-07
3.84719842e-10
6.67793035e-07
3.7533923e-10
6.67733431e-07
3.65741171e-10
6.67676064e-07
3.55950607e-10
6.67620932e-07
3.45990221e-10
6.67568029e-07
3.35881003e-10
6.67517352e-07
3.25641679e-10
6.67468897e-07
3.15288803e-10
6.67422664e-07
3.04835795e-10
6.67378652e-07
2.94293282e-10
6.67336862e-07
2.83667262e-10
6.67297299e-07
2.72963487e-10
6.67259969e-07
2.62159875e-10
6.67224853e-07
2.51336532e-10
6.67192005e-07
2.40054978e-10
6.67160862e-07
2.30348966e-10
2.12792774e-10
6.66634125e-07
1.60416267e-10
6.66515915e-07
5.87673918e-10
6.66293247e-07
1.08742757e-09
6.65964473e-07
1.59760642e-09
6.65539445e-07
2.06303989e-09
6.65035507e-07
2.44097329e-09
6.64475718e-07
2.7002076e-09
6.63886536e-07
2.8236375e-09
6.63294766e-07
2.81075319e-09
6.62725146e-07
2.67405406e-09
6.62199495e-07
2.43090037e-09
6.61736786e-07
2.09896145e-09
6.61352609e-07
1.70013671e-09
6.61056928e-07
1.2689692e-09
6.60850274e-07
8.56898871e-10
6.60720145e-07
5.26512329e-10
6.60640126e-07
3.36734017e-10
6.60573464e-07
3.25697215e-10
6.60482042e-07
4.98804014e-10
6.60334351e-07
8.27902616e-10
6.6011041e-07
1.26032078e-09
6.59803694e-07
1.73195047e-09
6.59419247e-07
2.17972948e-09
6.58971083e-07
2.55056342e-09
6.5847988e-07
2.80674004e-09
6.57970221e-07
2.92750325e-09
6.57467771e-07
2.90739866e-09
6.56997118e-07
2.75333228e-09
6.5658027e-07
2.48196751e-09
6.56235433e-07
2.11833981e-09
6.55975651e-07
1.69580672e-09
6.55807175e-07
1.25634527e-09
6.55727789e-07
8.49391438e-10
6.55725584e-07
5.27564698e-10
6.5577901e-07
3.3907069e-10
6.55858856e-07
3.18037059e-10
6.55933105e-07
4.74614917e-10
6.55972753e-07
7.89481857e-10
6.55956506e-07
1.21671242e-09
6.55874236e-07
1.69299413e-09
6.55728078e-07
2.1518991e-09
6.55530627e-07
2.53923539e-09
6.55300677e-07
2.8245899e-09
6.5505783e-07
3.00539543e-09
6.548177e-07
3.10258243e-09
6.54589068e-07
3.15003396e-09
6.54373554e-07
3.18220136e-09
6.54167363e-07
3.22441201e-09
6.53964041e-07
3.28864846e-09
6.53757043e-07
3.37490237e-09
6.53541325e-07
3.47599876e-09
6.53313784e-07
3.58297872e-09
6.53072861e-07
3.68880607e-09
6.52817845e-07
3.78961595e-09
6.52548288e-07
3.88404597e-09
6.5226375e-07
3.97179557e-09
6.51963807e-07
4.05240698e-09
6.51648214e-07
4.12471714e-09
6.51317051e-07
4.18690686e-09
6.50970818e-07
4.23683119e-09
6.50610448e-07
4.27233969e-09
6.50237286e-07
4.29145315e-09
6.49853049e-07
4.29240456e-09
6.49459803e-07
4.27361875e-09
6.49059932e-07
4.23368693e-09
6.48656116e-07
4.17136742e-09
6.48251299e-07
4.08560571e-09
6.47848658e-07
3.97554906e-09
6.47451563e-07
3.84056829e-09
6.47063545e-07
3.68026303e-09
6.46688268e-07
3.49445355e-09
6.46329503e-07
3.28317983e-09
6.45991112e-07
3.0466914e-09
6.45677028e-07
2.78543163e-09
6.45391242e-07
2.50003308e-09
6.45137786e-07
2.19130474e-09
6.44920727e-07
1.86022021e-09
6.44744132e-07
1.50792775e-09
6.44611963e-07
1.13576648e-09
6.44527704e-07
7.45379527e-10
6.44493354e-07
3.39150974e-10
6.44512588e-07
-8.14929294e-11
6.44590871e-07
-5.15068579e-10
6.44730821e-07
-9.58378835e-10
6.44934497e-07
-1.40912923e-09
6.45203421e-07
-1.86448819e-09
6.45538711e-07
-2.32132983e-09
6.45940847e-07
-2.77620173e-09
6.46409603e-07
-3.2253559e-09
6.46944019e-07
-3.6648188e-09
6.4754236e-07
-4.09045958e-09
6.482021e-07
-4.4980664e-09
6.48919917e-07
-4.8834278e-09
6.4969171e-07
-5.24244321e-09
6.50512642e-07
-5.57123571e-09
6.51377198e-07
-5.86625655e-09
6.52279265e-07
-6.1244017e-09
6.5321224e-07
-6.34310952e-09
6.54169144e-07
-6.52042938e-09
6.5514276e-07
-6.65508696e-09
6.56125773e-07
-6.74651564e-09
6.57110914e-07
-6.79485142e-09
6.58091101e-07
-6.80092509e-09
6.59059568e-07
-6.76621353e-09
6.60009977e-07
-6.69278536e-09
6.6093652e-07
-6.58321101e-09
6.61833987e-07
-6.4404914e-09
6.62697823e-07
-6.26794512e-09
6.63524159e-07
-6.06912297e-09
6.6430982e-07
-5.8477048e-09
6.65052316e-07
-5.60741453e-09
6.65749818e-07
-5.35192697e-09
6.66401122e-07
-5.08480385e-09
6.67005594e-07
-4.8094307e-09
6.6756312e-07
-4.52895763e-09
6.68074047e-07
-4.24626632e-09
6.68539131e-07
-3.96393796e-09
6.68959513e-07
-3.68422518e-09
6.69336699e-07
-3.40906506e-09
6.69672477e-07
-3.14011874e-09
6.69968818e-07
-2.87879491e-09
6.70227815e-07
-2.62625813e-09
6.70451642e-07
-2.38343261e-09
6.70642507e-07
-2.15102218e-09
6.70802604e-07
-1.92953203e-09
6.70934125e-07
-1.71928047e-09
6.71039248e-07
-1.52041807e-09
6.7112011e-07
-1.3329568e-09
6.71178785e-07
-1.15679993e-09
6.71217245e-07
-9.91760535e-10
6.71237326e-07
-8.37564928e-10
6.71240848e-07
-6.9385099e-10
6.71229559e-07
-5.60223957e-10
6.7120512e-07
-4.36268151e-10
6.71169087e-07
-3.21534004e-10
6.71122773e-07
-2.15436984e-10
6.71067378e-07
-1.1757778e-10
6.71006343e-07
-2.97122956e-11
6.70941439e-07
5.09599752e-11
6.70869841e-07
1.24126226e-10
6.70792959e-07
1.89451607e-10
6.70711272e-07
2.47524723e-10
6.70624984e-07
2.98734088e-10
6.70534546e-07
3.43613694e-10
6.70440601e-07
3.82814139e-10
6.70343799e-07
4.16954311e-10
6.70244715e-07
4.46535754e-10
6.70143882e-07
4.71983063e-10
6.70041813e-07
4.93689365e-10
6.69938994e-07
5.12011843e-10
6.69835871e-07
5.27268952e-10
6.69732843e-07
5.39748667e-10
6.69630253e-07
5.49710474e-10
6.69528388e-07
5.57385416e-10
6.69427486e-07
5.62978854e-10
6.69327742e-07
5.66674245e-10
6.69229319e-07
5.68637594e-10
6.69132353e-07
5.69020302e-10
6.69036964e-07
5.67961222e-10
6.68943255e-07
5.65590108e-10
6.68851319e-07
5.62028343e-10
6.68761239e-07
5.57389931e-10
6.68673089e-07
5.51780467e-10
6.68586935e-07
5.452986e-10
6.68502838e-07
5.38034609e-10
6.68420847e-07
5.30071483e-10
6.68341007e-07
5.21484445e-10
6.68263354e-07
5.1234175e-10
6.68187916e-07
5.02704204e-10
6.68114714e-07
4.92626537e-10
6.68043764e-07
4.8215798e-10
6.67975073e-07
4.7134213e-10
6.67908646e-07
4.6021833e-10
6.67844482e-07
4.48822179e-10
6.67782578e-07
4.37185308e-10
6.67722928e-07
4.25336486e-10
6.67665524e-07
4.13301863e-10
6.67610361e-07
4.01104493e-10
6.67557431e-07
3.88765149e-10
6.67506728e-07
3.7630188e-10
6.67458245e-07
3.63730326e-10
6.6741198e-07
3.5106283e-10
6.67367929e-07
3.38308995e-10
6.6732609e-07
3.25473969e-10
6.67286459e-07
3.12563479e-10
6.67249039e-07
2.99553263e-10
6.67213812e-07
2.86534626e-10
6.6718086e-07
2.72991586e-10
6.67149935e-07
2.61211634e-10
2.40050225e-10
6.66641718e-07
1.85392157e-10
6.66531992e-07
6.97563535e-10
6.66316424e-07
1.30329593e-09
6.65990122e-07
1.9242437e-09
6.65561201e-07
2.49231388e-09
6.6504688e-07
2.95569105e-09
6.64471102e-07
3.276426e-09
6.63862026e-07
3.4331763e-09
6.63248855e-07
3.42439438e-09
6.62659175e-07
3.26420866e-09
6.62117756e-07
2.97280688e-09
6.61646144e-07
2.57108146e-09
6.61261362e-07
2.08545992e-09
6.6097263e-07
1.55827352e-09
6.60777488e-07
1.05261881e-09
6.60660509e-07
6.4403937e-10
6.60595228e-07
4.02532496e-10
6.60547508e-07
3.7392972e-10
6.60480025e-07
5.66793663e-10
6.60357536e-07
9.50871097e-10
6.60153662e-07
1.46461262e-09
6.59856075e-07
2.02987815e-09
6.59467655e-07
2.56842463e-09
6.59003786e-07
3.01466581e-09
6.58488316e-07
3.32241899e-09
6.5794966e-07
3.4663565e-09
6.57417463e-07
3.43978963e-09
6.5692011e-07
3.25088153e-09
6.56482979e-07
2.91929946e-09
6.56127002e-07
2.47452407e-09
6.55867089e-07
1.95593061e-09
6.55710256e-07
1.4133957e-09
6.55653655e-07
9.0622364e-10
6.55683182e-07
4.98300596e-10
6.55773938e-07
2.48636902e-10
6.55894256e-07
1.98093557e-10
6.56009688e-07
3.59535861e-10
6.5608692e-07
7.12573832e-10
6.5610078e-07
1.20317494e-09
6.5603914e-07
1.75496842e-09
6.55904222e-07
2.28716866e-09
6.55710332e-07
2.73349951e-09
6.55478833e-07
3.05648743e-09
6.55231989e-07
3.25266392e-09
6.54987553e-07
3.34746721e-09
6.54755601e-07
3.38245796e-09
6.5453816e-07
3.40013603e-09
6.54331144e-07
3.43194061e-09
6.54127405e-07
3.49291848e-09
6.53919586e-07
3.58326916e-09
6.53701916e-07
3.69423015e-09
6.53470743e-07
3.81472618e-09
6.53224134e-07
3.93599932e-09
6.52961132e-07
4.05321251e-09
6.52681118e-07
4.16466125e-09
6.52383521e-07
4.2699992e-09
6.52067822e-07
4.36871511e-09
6.51733717e-07
4.45943242e-09
6.5138128e-07
4.53995364e-09
6.51011053e-07
4.60766248e-09
6.50624071e-07
4.65992088e-09
6.50221823e-07
4.69429149e-09
6.49806216e-07
4.70859151e-09
6.49379532e-07
4.70086845e-09
6.489444e-07
4.66936811e-09
6.48503764e-07
4.6125333e-09
6.48060853e-07
4.52902538e-09
6.47619147e-07
4.41774025e-09
6.47182342e-07
4.27783157e-09
6.46754319e-07
4.10871617e-09
6.46339108e-07
3.91006531e-09
6.45940852e-07
3.68180473e-09
6.45563776e-07
3.4241041e-09
6.45212152e-07
3.13735933e-09
6.44890267e-07
2.82218496e-09
6.44602401e-07
2.47940184e-09
6.44352788e-07
2.11002643e-09
6.44145589e-07
1.71527816e-09
6.43984885e-07
1.2965784e-09
6.43874816e-07
8.55511096e-10
6.43820121e-07
3.938708e-10
6.43824565e-07
-8.5992771e-11
6.43890945e-07
-5.81522674e-10
6.44022473e-07
-1.09002769e-09
6.44221841e-07
-1.60866605e-09
6.44491227e-07
-2.13409065e-09
6.44832146e-07
-2.66250941e-09
6.45245421e-07
-3.1897818e-09
6.45731127e-07
-3.71141187e-09
6.46288514e-07
-4.22259652e-09
6.4691593e-07
-4.71830781e-09
6.4761079e-07
-5.1933971e-09
6.48369557e-07
-5.64270266e-09
6.49187762e-07
-6.06118933e-09
6.50060045e-07
-6.44409135e-09
6.50980232e-07
-6.78704479e-09
6.51941437e-07
-7.08623237e-09
6.52936185e-07
-7.33850572e-09
6.53956563e-07
-7.5414734e-09
6.5499438e-07
-7.69358382e-09
6.56041341e-07
-7.79416662e-09
6.57089222e-07
-7.84342824e-09
6.58130038e-07
-7.8424404e-09
6.59156204e-07
-7.79307693e-09
6.60160667e-07
-7.69794082e-09
6.6113702e-07
-7.56024777e-09
6.62079587e-07
-7.38373028e-09
6.62983479e-07
-7.17249395e-09
6.63844622e-07
-6.93090635e-09
6.64659764e-07
-6.66346737e-09
6.65426454e-07
-6.37470251e-09
6.66143e-07
-6.06904947e-09
6.66808426e-07
-5.75078071e-09
6.67422399e-07
-5.42392966e-09
6.67985166e-07
-5.09222462e-09
6.68497481e-07
-4.75905571e-09
6.68960542e-07
-4.4274463e-09
6.69375927e-07
-4.10003245e-09
6.69745541e-07
-3.77907515e-09
6.70071535e-07
-3.46648328e-09
6.7035623e-07
-3.16383488e-09
6.70602053e-07
-2.87240298e-09
6.70811495e-07
-2.59317191e-09
6.70987062e-07
-2.32686519e-09
6.71131245e-07
-2.07396901e-09
6.71246491e-07
-1.83476012e-09
6.7133519e-07
-1.60933023e-09
6.71399651e-07
-1.3976126e-09
6.71442088e-07
-1.19941287e-09
6.71464599e-07
-1.01443168e-09
6.71469172e-07
-8.42281766e-10
6.71457697e-07
-6.82505262e-10
6.71431958e-07
-5.34600404e-10
6.71393645e-07
-3.98057542e-10
6.71344433e-07
-2.72409978e-10
6.71286241e-07
-1.57316038e-10
6.71220898e-07
-5.22467082e-11
6.71147467e-07
4.3800586e-11
6.7106783e-07
1.30705798e-10
6.70983097e-07
2.08968022e-10
6.70893774e-07
2.78878161e-10
6.70800493e-07
3.40903305e-10
6.70703749e-07
3.95571901e-10
6.70604004e-07
4.43449621e-10
6.7050177e-07
4.85136735e-10
6.70397584e-07
5.2122761e-10
6.70291947e-07
5.52259405e-10
6.70185307e-07
5.78708041e-10
6.70078068e-07
6.01012078e-10
6.69970588e-07
6.19572967e-10
6.69863187e-07
6.34747075e-10
6.69756161e-07
6.46847356e-10
6.69649789e-07
6.56150758e-10
6.6954433e-07
6.62907204e-10
6.69440021e-07
6.67345601e-10
6.69337073e-07
6.69676499e-10
6.69235666e-07
6.70094828e-10
6.69135955e-07
6.68780682e-10
6.69038063e-07
6.65899552e-10
6.68942094e-07
6.61604239e-10
6.68848131e-07
6.56035024e-10
6.68756243e-07
6.49321334e-10
6.68666484e-07
6.41581316e-10
6.685789e-07
6.32924017e-10
6.68493527e-07
6.2344808e-10
6.68410394e-07
6.13243392e-10
6.68329526e-07
6.02390944e-10
6.6825094e-07
5.9096405e-10
6.68174652e-07
5.79027931e-10
6.68100671e-07
5.66641309e-10
6.68029005e-07
5.53857049e-10
6.67959657e-07
5.40721958e-10
6.67892628e-07
5.27278317e-10
6.67827915e-07
5.1356441e-10
6.67765514e-07
4.99614188e-10
6.67705419e-07
4.85458452e-10
6.67647622e-07
4.71125062e-10
6.67592113e-07
4.56638335e-10
6.67538883e-07
4.42019945e-10
6.67487919e-07
4.27288412e-10
6.67439212e-07
4.12459507e-10
6.67392751e-07
3.9754534e-10
6.67348526e-07
3.82555221e-10
6.67306526e-07
3.67493941e-10
6.67266739e-07
3.52368251e-10
6.67229159e-07
3.37152156e-10
6.67193747e-07
3.2196121e-10
6.67160543e-07
3.06219218e-10
6.67129028e-07
2.92697489e-10
2.68598656e-10
6.66640444e-07
2.11477428e-10
6.66529481e-07
8.08522566e-10
6.66311913e-07
1.52089239e-09
6.6598321e-07
2.25290404e-09
6.65551652e-07
2.92375455e-09
6.65034465e-07
3.47273949e-09
6.64455489e-07
3.85526606e-09
6.63842659e-07
4.04586842e-09
6.63224914e-07
4.04199596e-09
6.62629586e-07
3.85939293e-09
6.62081121e-07
3.52113193e-09
6.61600705e-07
3.05135692e-09
6.61205097e-07
2.48091522e-09
6.60904316e-07
1.85887814e-09
6.60698272e-07
1.2584561e-09
6.6057463e-07
7.67460786e-10
6.60506225e-07
4.70714115e-10
6.60455954e-07
4.23984089e-10
6.60384206e-07
6.38345656e-10
6.60256798e-07
1.07811813e-09
6.6005015e-07
1.67113821e-09
6.59753354e-07
2.32658327e-09
6.59368508e-07
2.95319403e-09
6.58909339e-07
3.473761e-09
6.58398217e-07
3.83346286e-09
6.57862577e-07
4.0019102e-09
6.57331637e-07
3.97063404e-09
6.56833831e-07
3.74858267e-09
6.56394931e-07
3.35808581e-09
6.56036486e-07
2.83284828e-09
6.55774144e-07
2.21814293e-09
6.55615714e-07
1.57168191e-09
6.55559306e-07
9.62463886e-10
6.55592432e-07
4.64949095e-10
6.55692754e-07
1.47982068e-10
6.55827728e-07
6.26770538e-11
6.55958004e-07
2.28872801e-10
6.56050694e-07
6.19560523e-10
6.56081194e-07
1.17236721e-09
6.56037087e-07
1.79876423e-09
6.55919711e-07
2.40422159e-09
6.55742443e-07
2.91042376e-09
6.55526074e-07
3.27248915e-09
6.55292752e-07
3.48559377e-09
6.55060461e-07
3.57934085e-09
6.5483963e-07
3.6028458e-09
6.5463255e-07
3.60674719e-09
6.54435192e-07
3.62880794e-09
6.54240241e-07
3.68735891e-09
6.54040026e-07
3.7829558e-09
6.53828408e-07
3.90530388e-09
6.53601383e-07
4.04119559e-09
6.53356715e-07
4.18010085e-09
6.530932e-07
4.31615431e-09
6.52810022e-07
4.44726049e-09
6.52506454e-07
4.57298496e-09
6.52181865e-07
4.6927208e-09
6.51835885e-07
4.80483091e-09
6.51468575e-07
4.90668642e-09
6.51080524e-07
4.99514269e-09
6.50672866e-07
5.06701647e-09
6.50247249e-07
5.11935648e-09
6.49805789e-07
5.1495119e-09
6.49351028e-07
5.15510539e-09
6.48885893e-07
5.13399636e-09
6.48413659e-07
5.08428069e-09
6.47937901e-07
5.00431786e-09
6.47462447e-07
4.89275194e-09
6.46991325e-07
4.74853772e-09
6.46528708e-07
4.57094273e-09
6.46078882e-07
4.3595291e-09
6.4564621e-07
4.11414318e-09
6.45235114e-07
3.83489488e-09
6.44850065e-07
3.52213308e-09
6.44495566e-07
3.1764382e-09
6.44176141e-07
2.79861237e-09
6.43896315e-07
2.38967084e-09
6.43660596e-07
1.95084897e-09
6.43473453e-07
1.48360764e-09
6.43339156e-07
9.89731826e-10
6.43261596e-07
4.71389392e-10
6.43244844e-07
-6.92244591e-11
6.43293405e-07
-6.30047086e-10
6.43410897e-07
-1.20744738e-09
6.4360045e-07
-1.79811003e-09
6.43864649e-07
-2.39814497e-09
6.44205489e-07
-3.00317297e-09
6.44624243e-07
-3.60832594e-09
6.45121346e-07
-4.20827589e-09
6.45696318e-07
-4.79730023e-09
6.46347674e-07
-5.36936937e-09
6.47072865e-07
-5.9182695e-09
6.47868241e-07
-6.43773639e-09
6.48729043e-07
-6.92162894e-09
6.49649445e-07
-7.36411047e-09
6.50622621e-07
-7.75982081e-09
6.51640867e-07
-8.10406329e-09
6.52695755e-07
-8.39296448e-09
6.53778314e-07
-8.62359162e-09
6.5487924e-07
-8.79405889e-09
6.55989112e-07
-8.9035804e-09
6.57098613e-07
-8.95246451e-09
6.58198736e-07
-8.94209415e-09
6.59280974e-07
-8.8748434e-09
6.60337483e-07
-8.75397873e-09
6.61361214e-07
-8.58350838e-09
6.62346005e-07
-8.36805396e-09
6.63286641e-07
-8.11266815e-09
6.64178881e-07
-7.82269091e-09
6.65019448e-07
-7.50358744e-09
6.65805998e-07
-7.16081526e-09
6.66537063e-07
-6.79968744e-09
6.67211977e-07
-6.42528008e-09
6.67830797e-07
-6.04234745e-09
6.6839421e-07
-5.65524916e-09
6.68903445e-07
-5.26791722e-09
6.69360188e-07
-4.88383009e-09
6.69766496e-07
-4.50599706e-09
6.70124724e-07
-4.1369754e-09
6.70437445e-07
-3.77889224e-09
6.70707375e-07
-3.43346813e-09
6.70937307e-07
-3.10205455e-09
6.71130062e-07
-2.78566138e-09
6.71288441e-07
-2.48499414e-09
6.71415192e-07
-2.20048456e-09
6.71512983e-07
-1.93232924e-09
6.71584382e-07
-1.68052244e-09
6.71631851e-07
-1.44488699e-09
6.7165773e-07
-1.2251095e-09
6.71664238e-07
-1.02076817e-09
6.71653474e-07
-8.31356498e-10
6.7162743e-07
-6.5630786e-10
6.7158799e-07
-4.95011024e-10
6.71536876e-07
-3.46791341e-10
6.71475447e-07
-2.10824307e-10
6.71404523e-07
-8.62403878e-11
6.71325208e-07
2.71701106e-11
6.7124055e-07
1.28495951e-10
6.71150673e-07
2.20593383e-10
6.71056374e-07
3.0326611e-10
6.70958281e-07
3.76966418e-10
6.708569e-07
4.42275765e-10
6.70752701e-07
4.99760113e-10
6.70646133e-07
5.50005994e-10
6.70537644e-07
5.93612228e-10
6.70427691e-07
6.31165648e-10
6.70316717e-07
6.63217448e-10
6.7020514e-07
6.90267291e-10
6.70093363e-07
7.12770164e-10
6.69981772e-07
7.31145345e-10
6.69870718e-07
7.45782627e-10
6.69760505e-07
7.57042692e-10
6.69651386e-07
7.65253653e-10
6.69543568e-07
7.70710121e-10
6.69437224e-07
7.73675981e-10
6.69332497e-07
7.74388411e-10
6.69229515e-07
7.73062872e-10
6.69128385e-07
7.69896022e-10
6.69029202e-07
7.65066943e-10
6.6893205e-07
7.58740587e-10
6.68836999e-07
7.51068459e-10
6.68744113e-07
7.42190282e-10
6.68653442e-07
7.32233247e-10
6.68565033e-07
7.21314636e-10
6.68478922e-07
7.09540618e-10
6.68395138e-07
6.97008275e-10
6.68313704e-07
6.83805444e-10
6.68234637e-07
6.70011995e-10
6.68157947e-07
6.55699229e-10
6.68083638e-07
6.40931541e-10
6.6801171e-07
6.25766949e-10
6.67942157e-07
6.10256653e-10
6.67874971e-07
5.9444657e-10
6.67810141e-07
5.78377778e-10
6.67747652e-07
5.62086086e-10
6.6768749e-07
5.45603398e-10
6.67629641e-07
5.28958043e-10
6.67574089e-07
5.12174246e-10
6.67520819e-07
4.95273301e-10
6.67469819e-07
4.78273157e-10
6.67421074e-07
4.61189025e-10
6.67374572e-07
4.44032522e-10
6.67330299e-07
4.26812716e-10
6.67288244e-07
4.09534563e-10
6.67248392e-07
3.92205775e-10
6.67210731e-07
3.74799539e-10
6.67175233e-07
3.57442334e-10
6.67141965e-07
3.39480661e-10
6.67110662e-07
3.23945111e-10
2.96251079e-10
6.666404e-07
2.37704032e-10
6.66529354e-07
9.1957737e-10
6.66311189e-07
1.7391213e-09
6.65980342e-07
2.58377963e-09
6.65544092e-07
3.35999658e-09
6.65019035e-07
3.99779458e-09
6.64429078e-07
4.44524148e-09
6.63802966e-07
4.67200243e-09
6.6317095e-07
4.67402665e-09
6.6256185e-07
4.46850012e-09
6.62001615e-07
4.0813692e-09
6.61512867e-07
3.54010319e-09
6.61113659e-07
2.88011915e-09
6.60814675e-07
2.15786021e-09
6.60615289e-07
1.45785497e-09
6.60500179e-07
8.826038e-10
6.60441112e-07
5.29829012e-10
6.60400315e-07
4.64829192e-10
6.60338025e-07
7.00668866e-10
6.60218115e-07
1.19804803e-09
6.60014682e-07