/*--------------------------------*- C++ -*----------------------------------*\
| =========                 |                                                 |
| \\      /  F ield         | OpenFOAM: The Open Source CFD Toolbox           |
|  \\    /   O peration     | Version:  v2012                                 |
|   \\  /    A nd           | Website:  www.openfoam.com                      |
|    \\/     M anipulation  |                                                 |
\*---------------------------------------------------------------------------*/
FoamFile
{
    version     2.0;
    format      ascii;
    class       volVectorField;
    location    "2.14";
    object      H;
}
// * * * * * * * * * * * * * * * * * * * * * * * * * * * * * * * * * * * * * //

dimensions      [0 1 -2 0 0 0 0];


internalField   nonuniform List<vector> 
28416
(
(160.70876 0.014271088 0)
(160.689039 0.0332265783 0)
(160.662523 0.0377867468 0)
(160.633697 0.0280008238 0)
(160.609913 0.00605445931 0)
(160.594428 -0.0270729272 0)
(160.588078 -0.0692830005 0)
(160.594635 -0.117246057 0)
(160.617495 -0.166099813 0)
(160.656753 -0.208220248 0)
(160.709565 -0.234840155 0)
(160.770429 -0.2387843 0)
(160.832014 -0.216666385 0)
(160.88656 -0.169732258 0)
(160.927185 -0.103263399 0)
(160.949933 -0.0248527317 0)
(160.954322 0.0565262951 0)
(160.938656 0.133039176 0)
(160.904548 0.198248295 0)
(160.856197 0.247268733 0)
(160.797758 0.277447152 0)
(160.733518 0.288238538 0)
(160.667666 0.280935088 0)
(160.603985 0.258464725 0)
(160.545832 0.225163584 0)
(160.496014 0.186506283 0)
(160.456301 0.14886496 0)
(160.426783 0.11917328 0)
(160.405374 0.104255183 0)
(160.387685 0.109791961 0)
(160.367494 0.13915776 0)
(160.337823 0.192403679 0)
(160.292218 0.265784955 0)
(160.225889 0.35224933 0)
(160.136495 0.442905329 0)
(160.024411 0.529047291 0)
(159.892346 0.604103631 0)
(159.744423 0.664888133 0)
(159.58503 0.711771217 0)
(159.417805 0.747793739 0)
(159.245048 0.777146988 0)
(159.067659 0.803644992 0)
(158.885525 0.829727216 0)
(158.698086 0.856217569 0)
(158.504849 0.882709579 0)
(158.305682 0.908227895 0)
(158.100859 0.931810486 0)
(157.890956 0.952812404 0)
(157.676695 0.970927467 0)
(157.458835 0.986050061 0)
(157.238124 0.998118002 0)
(157.015309 1.00702081 0)
(156.791158 1.01258544 0)
(156.566484 1.01460741 0)
(156.342147 1.01288888 0)
(156.119047 1.00726232 0)
(155.898113 0.997597133 0)
(155.680294 0.983796851 0)
(155.466545 0.965794627 0)
(155.257826 0.943550639 0)
(155.055086 0.917051523 0)
(154.859261 0.886310691 0)
(154.671262 0.851368973 0)
(154.491966 0.812295827 0)
(154.322208 0.769191716 0)
(154.162777 0.722191758 0)
(154.014414 0.671469839 0)
(153.877817 0.617241537 0)
(153.753643 0.559763782 0)
(153.642518 0.499330136 0)
(153.545044 0.436261264 0)
(153.461802 0.370894591 0)
(153.393352 0.303564694 0)
(153.340297 0.23459229 0)
(153.303305 0.164228953 0)
(153.282617 0.0924770766 0)
(153.277098 0.0194621219 0)
(153.288665 -0.0532049876 0)
(153.317896 -0.12551994 0)
(153.364298 -0.197642197 0)
(153.427234 -0.26920647 0)
(153.506477 -0.339775753 0)
(153.601794 -0.408973291 0)
(153.712732 -0.476412421 0)
(153.838706 -0.541678675 0)
(153.979041 -0.604344182 0)
(154.132953 -0.663970987 0)
(154.299549 -0.720112708 0)
(154.477844 -0.772325433 0)
(154.666781 -0.820185824 0)
(154.865238 -0.863311353 0)
(155.072039 -0.901378172 0)
(155.285965 -0.934133589 0)
(155.505761 -0.961402096 0)
(155.730147 -0.983086102 0)
(155.957834 -0.999163467 0)
(156.187539 -1.00968367 0)
(156.418002 -1.01476357 0)
(156.648004 -1.01458271 0)
(156.876382 -1.00937805 0)
(157.102038 -0.99943758 0)
(157.323958 -0.985092983 0)
(157.541215 -0.96671143 0)
(157.752977 -0.944686827 0)
(157.958508 -0.91943087 0)
(158.157177 -0.891364332 0)
(158.348453 -0.860908806 0)
(158.531902 -0.828479304 0)
(158.70719 -0.794477784 0)
(158.874071 -0.759287743 0)
(159.032388 -0.723269802 0)
(159.182061 -0.686758273 0)
(159.323085 -0.650058614 0)
(159.455518 -0.613445766 0)
(159.579479 -0.577163482 0)
(159.695135 -0.541424524 0)
(159.802698 -0.506411618 0)
(159.902416 -0.472279015 0)
(159.994567 -0.439154367 0)
(160.079452 -0.40714076 0)
(160.15739 -0.376318819 0)
(160.22871 -0.346748736 0)
(160.29375 -0.318472151 0)
(160.352845 -0.291513627 0)
(160.406338 -0.265882166 0)
(160.454571 -0.241575038 0)
(160.497885 -0.218581751 0)
(160.536614 -0.19688694 0)
(160.57108 -0.176471889 0)
(160.601587 -0.157314624 0)
(160.628423 -0.139388983 0)
(160.651859 -0.122663209 0)
(160.672146 -0.107098753 0)
(160.68952 -0.0926500692 0)
(160.704205 -0.0792656069 0)
(160.716408 -0.0668894045 0)
(160.726325 -0.0554621751 0)
(160.734135 -0.0449201168 0)
(160.740001 -0.0351897644 0)
(160.74409 -0.0261868835 0)
(160.74659 -0.0178209943 0)
(160.747736 -0.0100191496 0)
(160.747878 -0.00275796388 0)
(160.74724 0.00381355835 0)
(160.745505 0.00972208035 0)
(160.742526 0.0151954346 0)
(160.738602 0.0203738885 0)
(160.734039 0.025244246 0)
(160.72898 0.0297619487 0)
(160.723502 0.0338963508 0)
(160.717664 0.0376241432 0)
(160.711503 0.0409343835 0)
(160.705038 0.0438334828 0)
(160.698288 0.0463420577 0)
(160.691271 0.048489265 0)
(160.684015 0.0503081858 0)
(160.676547 0.0518325584 0)
(160.668898 0.0530945502 0)
(160.6611 0.0541234143 0)
(160.653187 0.0549448678 0)
(160.645189 0.055580974 0)
(160.637134 0.05605031 0)
(160.629052 0.0563682881 0)
(160.620964 0.0565476057 0)
(160.612893 0.0565987607 0)
(160.604857 0.0565305874 0)
(160.596872 0.0563507967 0)
(160.58895 0.0560664685 0)
(160.581103 0.0556844502 0)
(160.573338 0.0552116257 0)
(160.565664 0.0546550482 0)
(160.558086 0.0540219526 0)
(160.550612 0.0533196748 0)
(160.543245 0.0525555185 0)
(160.535991 0.0517366277 0)
(160.528855 0.0508697983 0)
(160.52184 0.0499612454 0)
(160.514953 0.0490164745 0)
(160.508197 0.0480402961 0)
(160.501576 0.0470368947 0)
(160.495094 0.0460098868 0)
(160.488754 0.0449623529 0)
(160.48256 0.0438969514 0)
(160.476512 0.0428157178 0)
(160.470623 0.041721283 0)
(160.464862 0.0406119433 0)
(160.459355 0.0395022726 0)
(160.453703 0.0383331675 0)
(160.44938 0.0373473973 0)
(160.438828 0.0354481214 0)
(160.711563 0.0314088186 0)
(160.692528 0.0741970993 0)
(160.663841 0.0889128674 0)
(160.629881 0.0770162866 0)
(160.598342 0.0429322122 0)
(160.574599 -0.0107383529 0)
(160.563977 -0.0810710618 0)
(160.569775 -0.163025541 0)
(160.594973 -0.248210096 0)
(160.640584 -0.323689794 0)
(160.704127 -0.37465013 0)
(160.779449 -0.388803567 0)
(160.857768 -0.360036858 0)
(160.929376 -0.28993976 0)
(160.985509 -0.187004952 0)
(161.019764 -0.0640855405 0)
(161.029651 0.0634181735 0)
(161.014001 0.182356812 0)
(160.97425 0.283164128 0)
(160.915639 0.358957412 0)
(160.844303 0.406109396 0)
(160.766433 0.424130266 0)
(160.687972 0.4150298 0)
(160.614288 0.382811154 0)
(160.549896 0.333279888 0)
(160.498209 0.274032238 0)
(160.461166 0.214478611 0)
(160.438712 0.165543853 0)
(160.428317 0.138605822 0)
(160.424862 0.143586065 0)
(160.421011 0.18662078 0)
(160.408112 0.268107413 0)
(160.377611 0.381963712 0)
(160.32271 0.516565756 0)
(160.239727 0.657259132 0)
(160.128699 0.789770251 0)
(159.993041 0.903472024 0)
(159.838356 0.993453325 0)
(159.670806 1.06075362 0)
(159.495575 1.11081551 0)
(159.315919 1.15088175 0)
(159.133006 1.18740262 0)
(158.946434 1.22436989 0)
(158.755083 1.262959 0)
(158.557901 1.30224663 0)
(158.35437 1.34038972 0)
(158.144594 1.3756447 0)
(157.929136 1.40688391 0)
(157.708784 1.43361152 0)
(157.484363 1.45570128 0)
(157.256666 1.47310775 0)
(157.026463 1.48569933 0)
(156.794539 1.49323208 0)
(156.561733 1.49540495 0)
(156.328944 1.49192721 0)
(156.097124 1.4825596 0)
(155.867263 1.46712503 0)
(155.640373 1.44550266 0)
(155.417475 1.41761963 0)
(155.19959 1.38344699 0)
(154.987732 1.34299991 0)
(154.782899 1.29633926 0)
(154.586064 1.2435725 0)
(154.398167 1.18485322 0)
(154.220113 1.1203794 0)
(154.052763 1.05039065 0)
(153.896934 0.975164649 0)
(153.753399 0.895013151 0)
(153.622888 0.810277719 0)
(153.506079 0.721325447 0)
(153.403611 0.628544613 0)
(153.316072 0.532339657 0)
(153.244 0.433124113 0)
(153.187907 0.331312007 0)
(153.148099 0.227242801 0)
(153.124703 0.121166864 0)
(153.118555 0.01357422 0)
(153.13145 -0.0943655141 0)
(153.161703 -0.202065281 0)
(153.209386 -0.309320852 0)
(153.274492 -0.415573607 0)
(153.356796 -0.520190228 0)
(153.456017 -0.622578586 0)
(153.571748 -0.722119886 0)
(153.703441 -0.818158187 0)
(153.850422 -0.910028572 0)
(154.011892 -0.997073137 0)
(154.186927 -1.07865159 0)
(154.374495 -1.15415647 0)
(154.573461 -1.22302982 0)
(154.782607 -1.28477819 0)
(155.000636 -1.33898541 0)
(155.226193 -1.38532347 0)
(155.457878 -1.42356113 0)
(155.694259 -1.45356991 0)
(155.933897 -1.4753269 0)
(156.175363 -1.48891425 0)
(156.417257 -1.49451553 0)
(156.658236 -1.49240918 0)
(156.897021 -1.48295968 0)
(157.132417 -1.46660675 0)
(157.36333 -1.44385342 0)
(157.588769 -1.41525304 0)
(157.807855 -1.38139609 0)
(158.019829 -1.34289689 0)
(158.224049 -1.30038097 0)
(158.419987 -1.25447314 0)
(158.607234 -1.20578684 0)
(158.785484 -1.15491475 0)
(158.954536 -1.10242097 0)
(159.114283 -1.0488347 0)
(159.264703 -0.994645493 0)
(159.405851 -0.940299894 0)
(159.537849 -0.886199465 0)
(159.66088 -0.832700021 0)
(159.775174 -0.780111909 0)
(159.881005 -0.728701167 0)
(159.978679 -0.678691467 0)
(160.06853 -0.630266595 0)
(160.150909 -0.583573312 0)
(160.226182 -0.538724484 0)
(160.294722 -0.495802264 0)
(160.356906 -0.454861124 0)
(160.413105 -0.415930357 0)
(160.463692 -0.379016535 0)
(160.509032 -0.344108235 0)
(160.549478 -0.311180225 0)
(160.585377 -0.28019608 0)
(160.617057 -0.251109851 0)
(160.644832 -0.223867512 0)
(160.669002 -0.198408473 0)
(160.689849 -0.174666841 0)
(160.707637 -0.152572186 0)
(160.722615 -0.132050083 0)
(160.735017 -0.113022687 0)
(160.745059 -0.0954092429 0)
(160.752948 -0.0791261542 0)
(160.758879 -0.0640857218 0)
(160.763043 -0.0501930731 0)
(160.765626 -0.0373474906 0)
(160.766804 -0.0254509536 0)
(160.766735 -0.0144347036 0)
(160.765511 -0.00429571325 0)
(160.763369 0.00478238399 0)
(160.760381 0.0128619744 0)
(160.756573 0.0201345863 0)
(160.751965 0.0267774916 0)
(160.746651 0.0328737556 0)
(160.740754 0.0384552658 0)
(160.734375 0.0435391742 0)
(160.727596 0.048135703 0)
(160.720487 0.0522536269 0)
(160.713105 0.0559057796 0)
(160.705495 0.0591113894 0)
(160.697691 0.061895317 0)
(160.689723 0.0642859097 0)
(160.681619 0.0663130607 0)
(160.673404 0.0680067238 0)
(160.665104 0.069395866 0)
(160.656743 0.070507799 0)
(160.648343 0.0713679443 0)
(160.639927 0.0719997454 0)
(160.631515 0.0724243609 0)
(160.623127 0.0726606332 0)
(160.614778 0.0727253082 0)
(160.606486 0.072633308 0)
(160.598263 0.0723980161 0)
(160.590119 0.0720315521 0)
(160.582067 0.0715450224 0)
(160.574114 0.0709487231 0)
(160.566268 0.0702522923 0)
(160.558535 0.069464807 0)
(160.550922 0.0685948296 0)
(160.543431 0.0676504263 0)
(160.53607 0.0666391486 0)
(160.52884 0.0655680664 0)
(160.521746 0.0644438019 0)
(160.51479 0.0632724695 0)
(160.507975 0.0620595942 0)
(160.501305 0.0608100965 0)
(160.49478 0.0595283153 0)
(160.488404 0.0582180019 0)
(160.48218 0.0568824166 0)
(160.476105 0.0555239626 0)
(160.470194 0.0541456166 0)
(160.464412 0.0527448065 0)
(160.458888 0.0513375069 0)
(160.453199 0.0498567378 0)
(160.44885 0.0485806972 0)
(160.438089 0.0462574431 0)
(160.711403 0.0402791373 0)
(160.692213 0.0962708169 0)
(160.664377 0.118326787 0)
(160.63189 0.108875796 0)
(160.601952 0.0735171546 0)
(160.579352 0.016462341 0)
(160.569768 -0.0594662003 0)
(160.576649 -0.150706087 0)
(160.602424 -0.247958985 0)
(160.647702 -0.336313353 0)
(160.709928 -0.398612744 0)
(160.783196 -0.420326466 0)
(160.859163 -0.393846267 0)
(160.928597 -0.320401689 0)
(160.983088 -0.209222797 0)
(161.016067 -0.074872477 0)
(161.025753 0.0664247584 0)
(161.01304 0.199530673 0)
(160.97873 0.312417782 0)
(160.926315 0.397092832 0)
(160.860865 0.449561167 0)
(160.788193 0.469295208 0)
(160.713951 0.458479617 0)
(160.643253 0.421390117 0)
(160.580532 0.364166663 0)
(160.529315 0.294975443 0)
(160.491824 0.224217019 0)
(160.46841 0.164247871 0)
(160.456964 0.128170209 0)
(160.452629 0.127648425 0)
(160.448157 0.170249089 0)
(160.435043 0.257134473 0)
(160.405033 0.381986316 0)
(160.351585 0.531812956 0)
(160.271007 0.689677118 0)
(160.163026 0.838651291 0)
(160.030538 0.96579702 0)
(159.878589 1.06486443 0)
(159.712911 1.13682223 0)
(159.538487 1.18815323 0)
(159.358606 1.22772991 0)
(159.174628 1.26358358 0)
(158.986397 1.30075481 0)
(158.792998 1.3407667 0)
(158.593498 1.38247659 0)
(158.387408 1.42355102 0)
(158.174804 1.46176993 0)
(157.956207 1.49570343 0)
(157.732373 1.52474558 0)
(157.50412 1.54878076 0)
(157.272256 1.56780708 0)
(157.037577 1.58171328 0)
(156.800901 1.59023879 0)
(156.563101 1.5930425 0)
(156.325112 1.58978988 0)
(156.087925 1.58020696 0)
(155.852572 1.56409454 0)
(155.620107 1.54132023 0)
(155.3916 1.51180692 0)
(155.16812 1.47552637 0)
(154.950731 1.43249813 0)
(154.740481 1.38278996 0)
(154.538387 1.32651748 0)
(154.345435 1.26384242 0)
(154.162564 1.19497057 0)
(153.990659 1.1201502 0)
(153.830552 1.0396713 0)
(153.68302 0.953864406 0)
(153.548791 0.863097555 0)
(153.428548 0.76777043 0)
(153.322938 0.668306832 0)
(153.232567 0.565145307 0)
(153.158003 0.45873612 0)
(153.09976 0.349534312 0)
(153.058325 0.237990577 0)
(153.03409 0.124674274 0)
(153.026897 0.0102245252 0)
(153.039028 -0.105140153 0)
(153.069331 -0.220763934 0)
(153.117647 -0.336039029 0)
(153.183883 -0.450403832 0)
(153.267866 -0.563213528 0)
(153.36934 -0.673783619 0)
(153.48791 -0.78141016 0)
(153.623033 -0.885366058 0)
(153.774036 -0.984909961 0)
(153.940117 -1.07929976 0)
(154.120341 -1.1678053 0)
(154.313651 -1.24972455 0)
(154.518868 -1.32440386 0)
(154.734712 -1.39125951 0)
(154.959808 -1.44979748 0)
(155.192708 -1.49962955 0)
(155.431908 -1.54048438 0)
(155.675871 -1.57221354 0)
(155.92305 -1.59479301 0)
(156.171913 -1.608321 0)
(156.420965 -1.6130127 0)
(156.668769 -1.60919229 0)
(156.91397 -1.59728251 0)
(157.155306 -1.57779195 0)
(157.391628 -1.55130083 0)
(157.621903 -1.5184455 0)
(157.845229 -1.47990262 0)
(158.060831 -1.43637344 0)
(158.268069 -1.38856886 0)
(158.466427 -1.33719557 0)
(158.655515 -1.28294376 0)
(158.83506 -1.22647659 0)
(159.004897 -1.16842146 0)
(159.164958 -1.10936312 0)
(159.315268 -1.0498387 0)
(159.455929 -0.990334355 0)
(159.587109 -0.931283489 0)
(159.709038 -0.873066471 0)
(159.821993 -0.816011521 0)
(159.926287 -0.760396594 0)
(160.022269 -0.706452061 0)
(160.110308 -0.65436391 0)
(160.190788 -0.604277238 0)
(160.264104 -0.556299904 0)
(160.330655 -0.510506104 0)
(160.390839 -0.46693976 0)
(160.44505 -0.425617745 0)
(160.493675 -0.386533363 0)
(160.537097 -0.34966071 0)
(160.575683 -0.314959298 0)
(160.609793 -0.282378217 0)
(160.639767 -0.251859126 0)
(160.665928 -0.223337825 0)
(160.688578 -0.19674479 0)
(160.707998 -0.172005301 0)
(160.724449 -0.149039701 0)
(160.738175 -0.127764133 0)
(160.749405 -0.108091677 0)
(160.758352 -0.0899335815 0)
(160.765219 -0.0732005032 0)
(160.770196 -0.0578044052 0)
(160.773462 -0.0436624008 0)
(160.775188 -0.030700299 0)
(160.775523 -0.0188551236 0)
(160.774592 -0.00806624197 0)
(160.772467 0.00176169541 0)
(160.769464 0.0108096917 0)
(160.765594 0.019060365 0)
(160.760909 0.0265309994 0)
(160.755582 0.0332863758 0)
(160.74975 0.0393820371 0)
(160.743481 0.0448581383 0)
(160.736827 0.049752519 0)
(160.729837 0.0541033422 0)
(160.722552 0.0579458307 0)
(160.715003 0.0613144757 0)
(160.707224 0.064244047 0)
(160.699242 0.0667678897 0)
(160.691092 0.0689172485 0)
(160.682801 0.0707223151 0)
(160.6744 0.0722123925 0)
(160.665918 0.0734153439 0)
(160.657382 0.0743571249 0)
(160.64882 0.075061308 0)
(160.640255 0.07554883 0)
(160.631708 0.0758383693 0)
(160.623199 0.0759466728 0)
(160.614745 0.0758887799 0)
(160.606359 0.0756782808 0)
(160.598055 0.0753275975 0)
(160.589841 0.0748482388 0)
(160.581728 0.0742510111 0)
(160.573722 0.0735461648 0)
(160.565828 0.0727434721 0)
(160.558052 0.071852245 0)
(160.550399 0.0708813094 0)
(160.542872 0.0698389667 0)
(160.535475 0.0687329407 0)
(160.528213 0.0675703966 0)
(160.521088 0.0663579872 0)
(160.514103 0.065101815 0)
(160.507262 0.0638073577 0)
(160.500568 0.0624794487 0)
(160.494021 0.0611223 0)
(160.487626 0.0597394972 0)
(160.481383 0.0583340866 0)
(160.475291 0.0569081988 0)
(160.469363 0.0554643294 0)
(160.463564 0.0539997715 0)
(160.458019 0.0525283032 0)
(160.45232 0.050988205 0)
(160.447952 0.0496413303 0)
(160.437326 0.0472556043 0)
(160.71158 0.051802029 0)
(160.692018 0.124892388 0)
(160.662353 0.154873791 0)
(160.626822 0.144126733 0)
(160.593624 0.0996399185 0)
(160.569079 0.0265831884 0)
(160.558453 -0.072029323 0)
(160.565347 -0.190665743 0)
(160.593247 -0.31731849 0)
(160.643249 -0.433054902 0)
(160.712619 -0.51579359 0)
(160.794904 -0.546649788 0)
(160.880846 -0.515538981 0)
(160.960106 -0.423710982 0)
(161.023175 -0.282758334 0)
(161.063249 -0.11113033 0)
(161.077749 0.0703936738 0)
(161.066158 0.242079109 0)
(161.028862 0.387886797 0)
(160.971183 0.497304327 0)
(160.899455 0.565238076 0)
(160.820255 0.591038347 0)
(160.740063 0.577490596 0)
(160.664896 0.530064461 0)
(160.599947 0.456591906 0)
(160.549206 0.367447111 0)
(160.514964 0.275838602 0)
(160.497262 0.197519641 0)
(160.493445 0.149310499 0)
(160.498127 0.146306834 0)
(160.503597 0.198363183 0)
(160.500664 0.307037174 0)
(160.480056 0.464247813 0)
(160.434199 0.653380354 0)
(160.358726 0.852806606 0)
(160.253187 1.04094124 0)
(160.120753 1.20130418 0)
(159.967045 1.32593859 0)
(159.798462 1.41607336 0)
(159.620573 1.47995925 0)
(159.437055 1.52890693 0)
(159.249438 1.57318191 0)
(159.057549 1.61925937 0)
(158.860351 1.6691324 0)
(158.656753 1.72137614 0)
(158.44613 1.77301692 0)
(158.228471 1.82119842 0)
(158.004256 1.86405839 0)
(157.774229 1.90078709 0)
(157.53922 1.93121205 0)
(157.300053 1.95532009 0)
(157.05755 1.97296931 0)
(156.812562 1.98383289 0)
(156.566005 1.98748257 0)
(156.318863 1.98349809 0)
(156.072189 1.97153589 0)
(155.82708 1.95134797 0)
(155.584662 1.92277227 0)
(155.346076 1.88571834 0)
(155.112462 1.84015969 0)
(154.884953 1.78613315 0)
(154.66466 1.72374068 0)
(154.452665 1.65314996 0)
(154.250012 1.57459221 0)
(154.057705 1.48835736 0)
(153.8767 1.39478679 0)
(153.707911 1.29426438 0)
(153.552199 1.18720742 0)
(153.41037 1.07405899 0)
(153.283168 0.955282734 0)
(153.171274 0.831360138 0)
(153.075308 0.702789286 0)
(152.995827 0.57008252 0)
(152.933341 0.433768024 0)
(152.88829 0.294386772 0)
(152.861037 0.152463494 0)
(152.85206 0.00857757983 0)
(152.864028 -0.136278118 0)
(152.894767 -0.28147552 0)
(152.944311 -0.426302111 0)
(153.012675 -0.569976671 0)
(153.099771 -0.711660032 0)
(153.205388 -0.850476756 0)
(153.329176 -0.985520319 0)
(153.470635 -1.1158516 0)
(153.629101 -1.24051418 0)
(153.803754 -1.35855744 0)
(153.993611 -1.4690583 0)
(154.197533 -1.5711427 0)
(154.414238 -1.66400743 0)
(154.642315 -1.7469413 0)
(154.880242 -1.81934431 0)
(155.12641 -1.88074461 0)
(155.379146 -1.9308125 0)
(155.636738 -1.96937025 0)
(155.897463 -1.99639703 0)
(156.15962 -2.01202823 0)
(156.421551 -2.01654967 0)
(156.681673 -2.0103872 0)
(156.938498 -1.99409235 0)
(157.190653 -1.96832514 0)
(157.436898 -1.93383487 0)
(157.676133 -1.89143973 0)
(157.907411 -1.8420061 0)
(158.129933 -1.78642829 0)
(158.343053 -1.72560945 0)
(158.546272 -1.66044406 0)
(158.739231 -1.59180259 0)
(158.9217 -1.52051837 0)
(159.093569 -1.44737697 0)
(159.254836 -1.373108 0)
(159.405595 -1.29837929 0)
(159.546022 -1.22379323 0)
(159.67636 -1.14988502 0)
(159.796914 -1.07712263 0)
(159.908035 -1.00590824 0)
(160.010108 -0.936580686 0)
(160.103547 -0.869418939 0)
(160.188785 -0.804646243 0)
(160.266264 -0.742434638 0)
(160.336432 -0.682909846 0)
(160.399737 -0.6261563 0)
(160.45662 -0.57222227 0)
(160.507514 -0.521124994 0)
(160.55284 -0.47285562 0)
(160.593002 -0.427383528 0)
(160.628382 -0.38465956 0)
(160.659346 -0.344618383 0)
(160.68624 -0.307180608 0)
(160.709388 -0.272255313 0)
(160.729103 -0.239743025 0)
(160.745677 -0.209538564 0)
(160.759385 -0.181533194 0)
(160.770484 -0.155616007 0)
(160.779214 -0.131674847 0)
(160.785795 -0.109597141 0)
(160.790433 -0.0892707805 0)
(160.793315 -0.0705850707 0)
(160.794616 -0.0534314512 0)
(160.794498 -0.0377032569 0)
(160.793123 -0.0232955951 0)
(160.790684 -0.0101129975 0)
(160.787486 0.00185785047 0)
(160.78357 0.0127567646 0)
(160.778766 0.0226539697 0)
(160.773235 0.0316611597 0)
(160.767042 0.039854769 0)
(160.760251 0.0472863879 0)
(160.752966 0.0540001089 0)
(160.745287 0.0600323121 0)
(160.737291 0.0654121293 0)
(160.729045 0.0701695894 0)
(160.720607 0.0743382665 0)
(160.712018 0.077953771 0)
(160.70331 0.0810541199 0)
(160.694508 0.0836796243 0)
(160.68564 0.0858705885 0)
(160.676726 0.0876656709 0)
(160.66779 0.0891011786 0)
(160.658848 0.0902106578 0)
(160.649921 0.0910245648 0)
(160.641022 0.0915702105 0)
(160.632168 0.0918722653 0)
(160.623374 0.0919531219 0)
(160.614654 0.0918330914 0)
(160.606019 0.0915305866 0)
(160.597481 0.0910623122 0)
(160.589049 0.0904434433 0)
(160.580732 0.0896878052 0)
(160.572537 0.0888080462 0)
(160.564471 0.0878157999 0)
(160.55654 0.0867218316 0)
(160.548748 0.0855361559 0)
(160.541098 0.0842681202 0)
(160.533593 0.0829264786 0)
(160.526237 0.0815193651 0)
(160.51903 0.080054214 0)
(160.511976 0.078537749 0)
(160.505074 0.0769760274 0)
(160.498327 0.0753744661 0)
(160.491735 0.0737378498 0)
(160.4853 0.0720703032 0)
(160.479022 0.0703753945 0)
(160.472898 0.0686557161 0)
(160.466942 0.0669144885 0)
(160.461114 0.0651492295 0)
(160.455543 0.0633770998 0)
(160.449794 0.0615294582 0)
(160.445397 0.059910929 0)
(160.434491 0.0571048539 0)
(160.711652 0.0630715241 0)
(160.692299 0.153364391 0)
(160.662991 0.193084701 0)
(160.627824 0.184924304 0)
(160.594685 0.136773203 0)
(160.569147 0.0544456401 0)
(160.557779 -0.0586692773 0)
(160.565863 -0.196172146 0)
(160.595278 -0.34442266 0)
(160.646667 -0.481651135 0)
(160.717342 -0.582227786 0)
(160.800901 -0.623917245 0)
(160.888217 -0.594435294 0)
(160.969115 -0.494573441 0)
(161.034227 -0.337240849 0)
(161.076381 -0.143555753 0)
(161.093 0.0619056597 0)
(161.085049 0.256358598 0)
(161.052078 0.422004457 0)
(160.99848 0.546784039 0)
(160.930175 0.624503833 0)
(160.853757 0.654165608 0)
(160.775792 0.638766154 0)
(160.702358 0.584279768 0)
(160.638733 0.499290528 0)
(160.589062 0.395291723 0)
(160.555902 0.287164899 0)
(160.539665 0.192977109 0)
(160.538049 0.132326813 0)
(160.545711 0.123102243 0)
(160.554614 0.177360675 0)
(160.555235 0.297639844 0)
(160.538225 0.47515072 0)
(160.495999 0.690866378 0)
(160.424052 0.919539734 0)
(160.321667 1.13563782 0)
(160.19173 1.31940969 0)
(160.039655 1.46110392 0)
(159.871761 1.5619355 0)
(159.693655 1.63163273 0)
(159.509118 1.68374239 0)
(159.319788 1.73067458 0)
(159.125568 1.78032977 0)
(158.925443 1.83519372 0)
(158.718312 1.8935793 0)
(158.503524 1.95187998 0)
(158.281049 2.00660542 0)
(158.051362 2.05546885 0)
(157.815223 2.09747506 0)
(157.573483 2.13242063 0)
(157.327004 2.16030842 0)
(157.076647 2.18098982 0)
(156.823314 2.19409062 0)
(156.567975 2.1991104 0)
(156.311681 2.19555607 0)
(156.055555 2.18302688 0)
(155.800772 2.16123848 0)
(155.54854 2.13001159 0)
(155.300085 2.08925431 0)
(155.056638 2.03895188 0)
(154.819422 1.97916397 0)
(154.589641 1.91002428 0)
(154.368465 1.83173778 0)
(154.157022 1.74457489 0)
(153.956379 1.64886397 0)
(153.767536 1.54498434 0)
(153.591414 1.43336057 0)
(153.428864 1.31445764 0)
(153.280673 1.18877549 0)
(153.147571 1.05684224 0)
(153.030248 0.919207393 0)
(152.929351 0.776435548 0)
(152.845483 0.629104928 0)
(152.779194 0.477808235 0)
(152.730967 0.323156302 0)
(152.701229 0.165817436 0)
(152.690332 0.00650964078 0)
(152.701412 -0.154167555 0)
(152.73213 -0.31544359 0)
(152.782591 -0.476523586 0)
(152.852861 -0.636540045 0)
(152.942871 -0.794558638 0)
(153.052434 -0.949586229 0)
(153.18122 -1.10057872 0)
(153.32874 -1.24645175 0)
(153.494334 -1.38609597 0)
(153.67717 -1.51839705 0)
(153.876235 -1.64225959 0)
(154.090337 -1.75663474 0)
(154.318113 -1.86055073 0)
(154.558041 -1.9531435 0)
(154.808461 -2.03368456 0)
(155.067602 -2.10160409 0)
(155.333609 -2.15650799 0)
(155.60458 -2.19818867 0)
(155.878601 -2.22662935 0)
(156.153781 -2.2420021 0)
(156.428285 -2.24465997 0)
(156.700369 -2.2351237 0)
(156.968404 -2.21406367 0)
(157.230898 -2.18227824 0)
(157.48652 -2.14066948 0)
(157.734103 -2.09021761 0)
(157.972658 -2.03195516 0)
(158.201372 -1.96694199 0)
(158.419605 -1.89624207 0)
(158.626883 -1.82090238 0)
(158.822893 -1.74193485 0)
(159.007461 -1.66030121 0)
(159.180547 -1.57690103 0)
(159.342225 -1.49256284 0)
(159.492669 -1.40803812 0)
(159.632139 -1.32399801 0)
(159.760962 -1.2410322 0)
(159.879525 -1.15965002 0)
(159.988257 -1.08028304 0)
(160.087618 -1.00328904 0)
(160.17809 -0.928956849 0)
(160.260168 -0.857511941 0)
(160.334351 -0.789122178 0)
(160.401135 -0.723903785 0)
(160.46101 -0.661927116 0)
(160.514453 -0.603222043 0)
(160.561922 -0.54778289 0)
(160.603863 -0.49557318 0)
(160.640702 -0.446530605 0)
(160.672849 -0.400572484 0)
(160.700698 -0.357601422 0)
(160.724617 -0.317510207 0)
(160.744953 -0.280185128 0)
(160.762024 -0.245507716 0)
(160.776122 -0.213355575 0)
(160.787515 -0.183603218 0)
(160.796451 -0.156123326 0)
(160.803159 -0.130788256 0)
(160.807851 -0.107471451 0)
(160.810727 -0.0860486713 0)
(160.811973 -0.0663991845 0)
(160.811763 -0.0484073525 0)
(160.810261 -0.0319648944 0)
(160.807606 -0.0169726954 0)
(160.803815 -0.00333964741 0)
(160.799157 0.00909462185 0)
(160.793771 0.0202759825 0)
(160.787714 0.0303401223 0)
(160.781059 0.039370892 0)
(160.77391 0.0474410845 0)
(160.766365 0.0546419941 0)
(160.758475 0.0610599071 0)
(160.750275 0.0667681482 0)
(160.741807 0.0718301906 0)
(160.733115 0.0762990749 0)
(160.724241 0.0802170206 0)
(160.715221 0.0836202088 0)
(160.706089 0.0865431495 0)
(160.696881 0.089020146 0)
(160.687625 0.091084477 0)
(160.678345 0.0927680187 0)
(160.669065 0.0941012547 0)
(160.659806 0.09511314 0)
(160.650587 0.0958310918 0)
(160.641425 0.0962809737 0)
(160.632337 0.0964867481 0)
(160.623335 0.0964703488 0)
(160.614432 0.0962517986 0)
(160.605639 0.0958493877 0)
(160.596964 0.0952798735 0)
(160.588413 0.0945586796 0)
(160.579993 0.0937000748 0)
(160.571709 0.0927173103 0)
(160.563563 0.0916227148 0)
(160.555559 0.0904277545 0)
(160.5477 0.089143061 0)
(160.539989 0.0877784426 0)
(160.532427 0.0863428905 0)
(160.525018 0.0848445835 0)
(160.517762 0.0832909219 0)
(160.510663 0.0816885821 0)
(160.50372 0.0800435524 0)
(160.496935 0.0783611486 0)
(160.490309 0.0766460394 0)
(160.483842 0.074902246 0)
(160.477535 0.0731332728 0)
(160.471386 0.0713417095 0)
(160.465404 0.0695307935 0)
(160.459554 0.06769849 0)
(160.45396 0.0658608411 0)
(160.44821 0.0639556342 0)
(160.4438 0.0622687432 0)
(160.433105 0.0594302308 0)
(160.711719 0.0745580492 0)
(160.691985 0.182049174 0)
(160.661669 0.230294353 0)
(160.625204 0.22212608 0)
(160.591024 0.166585098 0)
(160.565591 0.0704688222 0)
(160.554791 -0.0618047561 0)
(160.563828 -0.223285323 0)
(160.595268 -0.398127552 0)
(160.650108 -0.560732568 0)
(160.725424 -0.680930177 0)
(160.814443 -0.732428624 0)
(160.907539 -0.70054175 0)
(160.994 -0.585900441 0)
(161.063978 -0.403360748 0)
(161.110013 -0.177502913 0)
(161.129206 0.0634249276 0)
(161.123166 0.292539703 0)
(161.090885 0.488040834 0)
(161.037044 0.635336945 0)
(160.96792 0.727120303 0)
(160.890519 0.762187108 0)
(160.811846 0.743961187 0)
(160.738404 0.679355335 0)
(160.675807 0.578372162 0)
(160.628381 0.454474185 0)
(160.598679 0.325151441 0)
(160.586907 0.211678261 0)
(160.590465 0.137167312 0)
(160.60388 0.122743132 0)
(160.619183 0.182682457 0)
(160.626706 0.320130518 0)
(160.616548 0.52501817 0)
(160.580472 0.77525988 0)
(160.513495 1.04136873 0)
(160.414656 1.29337742 0)
(160.286799 1.50796963 0)
(160.135437 1.67348097 0)
(159.967082 1.79111073 0)
(159.78756 1.87211696 0)
(159.600854 1.93234854 0)
(159.408741 1.98642596 0)
(159.211193 2.04374113 0)
(159.007195 2.1073389 0)
(158.795601 2.17532923 0)
(158.575697 2.24351303 0)
(158.347393 2.30777878 0)
(158.111125 2.36540115 0)
(157.867637 2.41516677 0)
(157.61779 2.45680109 0)
(157.362467 2.49028389 0)
(157.102571 2.51542557 0)
(156.839055 2.53177506 0)
(156.572952 2.53873342 0)
(156.30539 2.53571005 0)
(156.037578 2.52222334 0)
(155.770785 2.4979298 0)
(155.506321 2.46261131 0)
(155.245515 2.41615422 0)
(154.989696 2.3585373 0)
(154.74018 2.28982916 0)
(154.498251 2.21018887 0)
(154.265151 2.11986462 0)
(154.042065 2.01918848 0)
(153.830122 1.90856764 0)
(153.630392 1.78847316 0)
(153.443888 1.65942718 0)
(153.271557 1.52199007 0)
(153.114277 1.37674847 0)
(152.97285 1.2243057 0)
(152.847997 1.06527516 0)
(152.740373 0.900277803 0)
(152.650569 0.72994303 0)
(152.579134 0.554913019 0)
(152.526601 0.375853462 0)
(152.493466 0.193459366 0)
(152.480154 0.00845057452 0)
(152.490205 -0.178403504 0)
(152.520875 -0.366154579 0)
(152.572297 -0.553862394 0)
(152.644643 -0.740530187 0)
(152.737966 -0.925066613 0)
(152.852189 -1.10629192 0)
(152.987067 -1.28295153 0)
(153.142168 -1.45373105 0)
(153.316854 -1.61727842 0)
(153.510272 -1.77223363 0)
(153.721348 -1.9172623 0)
(153.948789 -2.05109054 0)
(154.191091 -2.17254012 0)
(154.446562 -2.2805632 0)
(154.713342 -2.37427489 0)
(154.989436 -2.45298197 0)
(155.272753 -2.51620571 0)
(155.561145 -2.56369725 0)
(155.852451 -2.59544434 0)
(156.144539 -2.61166921 0)
(156.435349 -2.61281806 0)
(156.722932 -2.59954321 0)
(157.005481 -2.57267926 0)
(157.281357 -2.53321471 0)
(157.549113 -2.48226069 0)
(157.807503 -2.42101834 0)
(158.05549 -2.35074628 0)
(158.292241 -2.27272952 0)
(158.517131 -2.18825084 0)
(158.729723 -2.09856539 0)
(158.929759 -2.0048791 0)
(159.117144 -1.90833103 0)
(159.291925 -1.80997984 0)
(159.454272 -1.71079399 0)
(159.604464 -1.61164576 0)
(159.742866 -1.51330833 0)
(159.86991 -1.41645559 0)
(159.986086 -1.32166434 0)
(160.09192 -1.22941828 0)
(160.187964 -1.14011326 0)
(160.274786 -1.05406367 0)
(160.352959 -0.971509343 0)
(160.423052 -0.892622899 0)
(160.485627 -0.817517201 0)
(160.541231 -0.746252834 0)