/*--------------------------------*- C++ -*----------------------------------*\
| =========                 |                                                 |
| \\      /  F ield         | OpenFOAM: The Open Source CFD Toolbox           |
|  \\    /   O peration     | Version:  v2012                                 |
|   \\  /    A nd           | Website:  www.openfoam.com                      |
|    \\/     M anipulation  |                                                 |
\*---------------------------------------------------------------------------*/
FoamFile
{
    version     2.0;
    format      ascii;
    class       surfaceScalarField;
    location    "2.14";
    object      phiHbyA;
}
// * * * * * * * * * * * * * * * * * * * * * * * * * * * * * * * * * * * * * //

dimensions      [0 3 -1 0 0 0 0];
oriented        oriented;


internalField   nonuniform List<scalar> 
56481
(
6.6662266e-07
8.78691723e-11
6.66528982e-07
2.02069196e-10
6.66415454e-07
2.37548496e-10
6.66308492e-07
1.97492643e-10
6.66232315e-07
9.35638579e-11
6.66185147e-07
-6.25889524e-11
6.66182413e-07
-2.63150388e-10
6.66240552e-07
-4.99195944e-10
6.66365796e-07
-7.43610687e-10
6.66552948e-07
-9.57738845e-10
6.66785295e-07
-1.09871831e-09
6.67036745e-07
-1.13149048e-09
6.67276325e-07
-1.03895832e-09
6.6747397e-07
-8.26240503e-10
6.67606447e-07
-5.1861706e-10
6.67665757e-07
-1.5633395e-10
6.67637007e-07
2.2097589e-10
6.67528154e-07
5.72819821e-10
6.67354323e-07
8.71050383e-10
6.6713187e-07
1.09570194e-09
6.66878333e-07
1.23550329e-09
6.6661105e-07
1.28842838e-09
6.66346105e-07
1.26028407e-09
6.66098221e-07
1.16296617e-09
6.65879707e-07
1.01457488e-09
6.65699267e-07
8.38490572e-10
6.65560013e-07
6.63181142e-10
6.65457303e-07
5.21095401e-10
6.65377409e-07
4.45485281e-10
6.6529819e-07
4.64920123e-10
6.65192418e-07
5.96689876e-10
6.65032723e-07
8.41430913e-10
6.64796476e-07
1.18117196e-09
6.6446969e-07
1.58202923e-09
6.64049054e-07
2.00139675e-09
6.63541514e-07
2.39773509e-09
6.62961474e-07
2.73996692e-09
6.62326504e-07
3.0134661e-09
6.61652924e-07
3.2207881e-09
6.60952616e-07
3.37727192e-09
6.60231821e-07
3.50358902e-09
6.59491902e-07
3.61829566e-09
6.58731344e-07
3.73301645e-09
6.57947974e-07
3.85136192e-09
6.57140564e-07
3.97092229e-09
6.56309481e-07
4.08659613e-09
6.55456533e-07
4.19348636e-09
6.5458442e-07
4.28838296e-09
6.53696193e-07
4.36983139e-09
6.52794949e-07
4.43740732e-09
6.51883762e-07
4.49091134e-09
6.5096575e-07
4.52990105e-09
6.50044173e-07
4.55361821e-09
6.49122475e-07
4.56114484e-09
6.48204282e-07
4.55159419e-09
6.47293359e-07
4.52422813e-09
6.46393569e-07
4.47848796e-09
6.45508826e-07
4.41397946e-09
6.44643063e-07
4.33044952e-09
6.43800201e-07
4.22777442e-09
6.42984112e-07
4.10595923e-09
6.42198584e-07
3.96514169e-09
6.41447284e-07
3.80559432e-09
6.40733724e-07
3.62772691e-09
6.40061231e-07
3.43208549e-09
6.3943294e-07
3.21935469e-09
6.38851791e-07
2.99035923e-09
6.38320552e-07
2.74605511e-09
6.37841841e-07
2.48752545e-09
6.37418158e-07
2.21596343e-09
6.37051908e-07
1.93264356e-09
6.36745437e-07
1.63889752e-09
6.36501121e-07
1.33606119e-09
6.36321554e-07
1.02531621e-09
6.36208356e-07
7.0743491e-10
6.36160765e-07
3.83875778e-10
6.36173673e-07
5.86719587e-11
6.36256809e-07
-2.70627592e-10
6.36409143e-07
-5.97955391e-10
6.36630348e-07
-9.2424038e-10
6.36919416e-07
-1.24759763e-09
6.37275106e-07
-1.56614111e-09
6.37695868e-07
-1.87815197e-09
6.38179666e-07
-2.18178388e-09
6.38723963e-07
-2.47507836e-09
6.39325758e-07
-2.756051e-09
6.39981611e-07
-3.02270794e-09
6.40687687e-07
-3.27307384e-09
6.41439806e-07
-3.50523424e-09
6.42233503e-07
-3.71740468e-09
6.43064073e-07
-3.90799086e-09
6.43926604e-07
-4.07564824e-09
6.44816021e-07
-4.21931786e-09
6.45727122e-07
-4.33825929e-09
6.46654632e-07
-4.4320633e-09
6.47593268e-07
-4.50064584e-09
6.48537804e-07
-4.54424703e-09
6.49483144e-07
-4.56341701e-09
6.50424385e-07
-4.55898848e-09
6.51356878e-07
-4.53205783e-09
6.52276276e-07
-4.48395407e-09
6.53178578e-07
-4.41619631e-09
6.54060157e-07
-4.33046316e-09
6.54917783e-07
-4.22854787e-09
6.55748636e-07
-4.11232234e-09
6.56550311e-07
-3.98369006e-09
6.57320816e-07
-3.84456022e-09
6.58058558e-07
-3.69680408e-09
6.58762333e-07
-3.54223385e-09
6.59431301e-07
-3.3825745e-09
6.60064964e-07
-3.21944789e-09
6.60663136e-07
-3.05435197e-09
6.61225917e-07
-2.88865552e-09
6.6175366e-07
-2.72359113e-09
6.62246943e-07
-2.56024807e-09
6.6270654e-07
-2.39957792e-09
6.63133387e-07
-2.24239795e-09
6.63528562e-07
-2.08939388e-09
6.63893248e-07
-1.94113173e-09
6.64228714e-07
-1.79806629e-09
6.6453629e-07
-1.66054762e-09
6.64817342e-07
-1.52883374e-09
6.6507325e-07
-1.40309713e-09
6.65305401e-07
-1.28343156e-09
6.65515196e-07
-1.16985516e-09
6.65704046e-07
-1.06233279e-09
6.65873338e-07
-9.60793053e-10
6.66024417e-07
-8.65135769e-10
6.66158571e-07
-7.7523853e-10
6.66277018e-07
-6.90959181e-10
6.66380904e-07
-6.12136204e-10
6.664713e-07
-5.38589992e-10
6.66549213e-07
-4.70121925e-10
6.66615586e-07
-4.06514e-10
6.66671307e-07
-3.4753178e-10
6.66717211e-07
-2.9292592e-10
6.66754067e-07
-2.42428049e-10
6.66782571e-07
-1.95749461e-10
6.66803388e-07
-1.5261751e-10
6.66817216e-07
-1.12769521e-10
6.66824917e-07
-7.5997192e-11
6.66827681e-07
-4.22242294e-11
6.66827345e-07
-1.16411737e-11
6.66822393e-07
1.67087925e-11
6.66811923e-07
4.25292504e-11
6.66797319e-07
6.57977159e-11
6.66779568e-07
8.72183622e-11
6.66759431e-07
1.06928535e-10
6.66737429e-07
1.24958622e-10
6.66713883e-07
1.41353684e-10
6.66688978e-07
1.56138166e-10
6.66662821e-07
1.69337236e-10
6.66635488e-07
1.80996179e-10
6.66607055e-07
1.91183551e-10
6.66577612e-07
1.99988115e-10
6.66547265e-07
2.07511593e-10
6.66516135e-07
2.13861546e-10
6.66484348e-07
2.1914516e-10
6.66452036e-07
2.23464257e-10
6.66419327e-07
2.26912735e-10
6.66386342e-07
2.29575057e-10
6.66353197e-07
2.31526256e-10
6.66319995e-07
2.32831578e-10
6.66286828e-07
2.33547839e-10
6.66253776e-07
2.33724098e-10
6.66220909e-07
2.33403496e-10
6.66188285e-07
2.32624402e-10
6.6615595e-07
2.31421938e-10
6.66123946e-07
2.2982866e-10
6.66092304e-07
2.27875727e-10
6.66061053e-07
2.2559341e-10
6.66030216e-07
2.23010988e-10
6.65999817e-07
2.20157136e-10
6.65969875e-07
2.17059772e-10
6.65940409e-07
2.1374539e-10
6.65911439e-07
2.1023875e-10
6.65882984e-07
2.06562739e-10
6.65855061e-07
2.02738023e-10
6.65827686e-07
1.98783261e-10
6.65800876e-07
1.94714861e-10
6.65774645e-07
1.90547298e-10
6.65749005e-07
1.86292845e-10
6.65723968e-07
1.81962245e-10
6.65699547e-07
1.77563667e-10
6.65675752e-07
1.7310634e-10
6.65652602e-07
1.68580493e-10
6.65630115e-07
1.6403684e-10
6.65608352e-07
1.59243866e-10
6.65587294e-07
1.5510537e-10
1.47382961e-10
6.66628748e-07
1.25969823e-10
6.66529551e-07
3.0199986e-10
6.6640017e-07
3.67700088e-10
6.66268466e-07
3.298378e-10
6.66156444e-07
2.0612885e-10
6.6608472e-07
9.85661122e-12
6.66072354e-07
-2.50488358e-10
6.66132876e-07
-5.59642254e-10
6.66275195e-07
-8.85986817e-10
6.66496785e-07
-1.17946577e-09
6.66780481e-07
-1.38259872e-09
6.67095977e-07
-1.44719267e-09
6.67405385e-07
-1.34856625e-09
6.67670731e-07
-1.09174898e-09
6.67860703e-07
-7.08655818e-10
6.67953265e-07
-2.48803614e-10
6.67938714e-07
2.35667571e-10
6.67821099e-07
6.90509282e-10
6.67616145e-07
1.07602709e-09
6.67347122e-07
1.36472766e-09
6.67039557e-07
1.54308517e-09
6.66718474e-07
1.60955661e-09
6.66407105e-07
1.57174395e-09
6.66125221e-07
1.44500481e-09
6.65888879e-07
1.25114536e-09
6.65708872e-07
1.01879285e-09
6.65588733e-07
7.8366609e-10
6.65522726e-07
5.87484499e-10
6.65494741e-07
4.73878007e-10
6.65478945e-07
4.81152337e-10
6.65442411e-07
6.33696694e-10
6.65349898e-07
9.34468655e-10
6.65170216e-07
1.36144868e-09
6.64882332e-07
1.87058823e-09
6.64479288e-07
2.40520385e-09
6.63968618e-07
2.90925779e-09
6.63369113e-07
3.34041149e-09
6.62704995e-07
3.67860692e-09
6.61999437e-07
3.92744386e-09
6.61269539e-07
4.10833753e-09
6.60524129e-07
4.25022989e-09
6.59764582e-07
4.37913112e-09
6.58987674e-07
4.51126767e-09
6.58188935e-07
4.65149457e-09
6.57365187e-07
4.79611178e-09
6.5651564e-07
4.93762846e-09
6.55641717e-07
5.06893412e-09
6.54746218e-07
5.18544124e-09
6.5383246e-07
5.28517604e-09
6.52903769e-07
5.36770792e-09
6.5196335e-07
5.43295574e-09
6.51014399e-07
5.48048673e-09
6.50060257e-07
5.50939749e-09
6.49104498e-07
5.51853636e-09
6.48150934e-07
5.50678095e-09
6.47203557e-07
5.47320933e-09
6.46266479e-07
5.41714393e-09
6.45343877e-07
5.33812747e-09
6.44439946e-07
5.23588675e-09
6.43558865e-07
5.11031399e-09
6.42704765e-07
4.96146461e-09
6.41881691e-07
4.78956135e-09
6.41093571e-07
4.59499413e-09
6.40344188e-07
4.37831751e-09
6.39637163e-07
4.14024198e-09
6.38975938e-07
3.88162909e-09
6.38363775e-07
3.60348766e-09
6.37803746e-07
3.30696063e-09
6.37298737e-07
2.9933198e-09
6.36851445e-07
2.6639462e-09
6.36464379e-07
2.32030245e-09
6.3613986e-07
1.96390909e-09
6.35879989e-07
1.59632031e-09
6.35686461e-07
1.21912513e-09
6.35560253e-07
8.33806121e-10
6.35502489e-07
4.41692669e-10
6.35517903e-07
4.3245042e-11
6.35602377e-07
-3.55257901e-10
6.35758917e-07
-7.54753799e-10
6.35986918e-07
-1.15262943e-09
6.36285967e-07
-1.54714491e-09
6.36655204e-07
-1.93598861e-09
6.3709318e-07
-2.31685e-09
6.37597937e-07
-2.68737141e-09
6.38167004e-07
-3.04508165e-09
6.38797378e-07
-3.38746127e-09
6.39485534e-07
-3.71199743e-09
6.40227474e-07
-4.0162366e-09
6.41018764e-07
-4.29783095e-09
6.41854587e-07
-4.55461139e-09
6.42729792e-07
-4.78464891e-09
6.43638947e-07
-4.98631774e-09
6.44576398e-07
-5.15833491e-09
6.45536332e-07
-5.29980275e-09
6.46512857e-07
-5.41023047e-09
6.47500078e-07
-5.48953324e-09
6.48492186e-07
-5.53803544e-09
6.49483539e-07
-5.55645476e-09
6.50468738e-07
-5.5458675e-09
6.51442698e-07
-5.50768253e-09
6.524007e-07
-5.44359946e-09
6.53338445e-07
-5.35555302e-09
6.54252079e-07
-5.24567192e-09
6.55138222e-07
-5.11622119e-09
6.55993975e-07
-4.9695558e-09
6.5681692e-07
-4.80806165e-09
6.57605114e-07
-4.6341226e-09
6.5835707e-07
-4.45006669e-09
6.59071732e-07
-4.25813982e-09
6.5974845e-07
-4.06047125e-09
6.60386943e-07
-3.85905439e-09
6.60987266e-07
-3.65572231e-09
6.6154977e-07
-3.45214225e-09
6.62075069e-07
-3.24980841e-09
6.62563999e-07
-3.05003476e-09
6.63017589e-07
-2.85396272e-09
6.6343702e-07
-2.66256606e-09
6.638236e-07
-2.47665475e-09
6.6417873e-07
-2.29688969e-09
6.6450388e-07
-2.12379361e-09
6.64800563e-07
-1.95775966e-09
6.65070311e-07
-1.79906755e-09
6.65314662e-07
-1.64789266e-09
6.65535144e-07
-1.50431869e-09
6.65733264e-07
-1.3683463e-09
6.65910505e-07
-1.23991074e-09
6.66068303e-07
-1.11889718e-09
6.66208041e-07
-1.00515173e-09
6.66331044e-07
-8.98492252e-10
6.66438573e-07
-7.98712818e-10
6.66531821e-07
-7.055848e-10
6.66611914e-07
-6.18859838e-10
6.66679909e-07
-5.38270958e-10
6.66736797e-07
-4.63533845e-10
6.66783504e-07
-3.94351072e-10
6.668209e-07
-3.3041543e-10
6.66849808e-07
-2.71412852e-10
6.66871027e-07
-2.17029205e-10
6.66885334e-07
-1.66963053e-10
6.66893489e-07
-1.2093014e-10
6.668962e-07
-7.86702076e-11
6.66894025e-07
-3.99579627e-11
6.66887155e-07
-4.62824785e-12
6.66876435e-07
2.75565588e-11
6.66862217e-07
5.68637325e-11
6.66844646e-07
8.34798976e-11
6.66824076e-07
1.07886807e-10
6.66800879e-07
1.30204703e-10
6.66775488e-07
1.50409044e-10
6.66748303e-07
1.68582072e-10
6.66719645e-07
1.84827327e-10
6.66689769e-07
1.9923475e-10
6.6665888e-07
2.11900026e-10
6.66627142e-07
2.22933808e-10
6.66594687e-07
2.32453587e-10
6.66561631e-07
2.4057682e-10
6.66528082e-07
2.47419457e-10
6.66494142e-07
2.53093553e-10
6.66459911e-07
2.57704163e-10
6.66425485e-07
2.61348189e-10
6.66390955e-07
2.64114029e-10
6.66356408e-07
2.66082103e-10
6.66321925e-07
2.67323899e-10
6.66287579e-07
2.67903366e-10
6.66253435e-07
2.67877082e-10
6.66219551e-07
2.67295716e-10
6.6618598e-07
2.66204858e-10
6.66152764e-07
2.64646385e-10
6.66119942e-07
2.62658942e-10
6.66087547e-07
2.60279055e-10
6.66055607e-07
2.5754157e-10
6.66024147e-07
2.54479539e-10
6.65993188e-07
2.51124659e-10
6.6596275e-07
2.47507329e-10
6.65932847e-07
2.43656884e-10
6.65903495e-07
2.39599954e-10
6.65874706e-07
2.35360732e-10
6.65846493e-07
2.30960945e-10
6.65818865e-07
2.26420106e-10
6.65791835e-07
2.21755417e-10
6.6576541e-07
2.16982117e-10
6.657396e-07
2.12113016e-10
6.65714413e-07
2.07159136e-10
6.65689859e-07
2.02128236e-10
6.65665947e-07
1.97029664e-10
6.65642685e-07
1.91853687e-10
6.65620072e-07
1.86657813e-10
6.65598121e-07
1.81214294e-10
6.65576655e-07
1.76538427e-10
1.68178332e-10
6.66626234e-07
1.6619344e-10
6.66529211e-07
3.98996235e-10
6.66404415e-07
4.92423019e-10
6.66278704e-07
4.5539186e-10
6.66173608e-07
3.1107389e-10
6.66106376e-07
7.70056561e-11
6.66098056e-07
-2.4201485e-10
6.66161191e-07
-6.22538568e-10
6.66303244e-07
-1.02772959e-09
6.6652076e-07
-1.39662583e-09
6.66797065e-07
-1.65851724e-09
6.67103408e-07
-1.75314066e-09
6.67403836e-07
-1.64861439e-09
6.67661869e-07
-1.34943882e-09
6.67846537e-07
-8.93042182e-10
6.67936391e-07
-3.38493357e-10
6.67928805e-07
2.43344148e-10
6.67827182e-07
7.9219013e-10
6.67644739e-07
1.25856182e-09
6.67400037e-07
1.60951511e-09
6.67115169e-07
1.82800195e-09
6.66813476e-07
1.9112626e-09
6.66516862e-07
1.86833801e-09
6.66244803e-07
1.71700458e-09
6.66013401e-07
1.48243751e-09
6.65834125e-07
1.19790851e-09
6.65711749e-07
9.05833753e-10
6.65642091e-07
6.56894768e-10
6.65610382e-07
5.05303197e-10
6.65591426e-07
4.99781467e-10
6.65552731e-07
6.72014403e-10
6.65460029e-07
1.02672709e-09
6.65283327e-07
1.5376279e-09
6.65002202e-07
2.15110156e-09
6.6460919e-07
2.79751156e-09
6.64110257e-07
3.40739333e-09
6.63522072e-07
3.92770799e-09
6.62866853e-07
4.3328515e-09
6.62166442e-07
4.62679952e-09
6.61437518e-07
4.83613227e-09
6.60689292e-07
4.99725719e-09
6.59923981e-07
5.14317828e-09
6.59139258e-07
5.29466397e-09
6.58331319e-07
5.45804813e-09
6.57497305e-07
5.62868653e-09
6.56636451e-07
5.79699241e-09
6.55750053e-07
5.95379718e-09
6.54840768e-07
6.09315318e-09
6.53911837e-07
6.21250045e-09
6.52966599e-07
6.31131339e-09
6.52008344e-07
6.3895595e-09
6.51040391e-07
6.44677686e-09
6.5006622e-07
6.48190091e-09
6.49089552e-07
6.49353945e-09
6.48114352e-07
6.48032725e-09
6.47144777e-07
6.44114811e-09
6.46185118e-07
6.37519326e-09
6.45239737e-07
6.28193101e-09
6.44313029e-07
6.1610595e-09
6.43409372e-07
6.01248198e-09
6.425331e-07
5.83630377e-09
6.41688452e-07
5.63283752e-09
6.40879539e-07
5.40260301e-09
6.40110302e-07
5.1463226e-09
6.39384484e-07
4.86490592e-09
6.38705607e-07
4.55943437e-09
6.38076965e-07
4.23114202e-09
6.37501639e-07
3.88138499e-09
6.3698252e-07
3.51162713e-09
6.36522325e-07
3.12342055e-09
6.36123614e-07
2.71838645e-09
6.35788786e-07
2.29820679e-09
6.35520055e-07
1.86461956e-09
6.35319457e-07
1.41939435e-09
6.35188726e-07
9.64315975e-10
6.35128907e-07
5.01396498e-10
6.35138392e-07
3.37166914e-11
6.35221991e-07
-4.38768464e-10
6.35378961e-07
-9.11538686e-10
6.35609723e-07
-1.38309783e-09
6.35913829e-07
-1.85085482e-09
6.36290427e-07
-2.31209428e-09
6.36738158e-07
-2.76399622e-09
6.37255112e-07
-3.20365035e-09
6.37838832e-07
-3.62804211e-09
6.38486316e-07
-4.03410694e-09
6.3919402e-07
-4.41878834e-09
6.39957871e-07
-4.77910667e-09
6.407733e-07
-5.1122156e-09
6.41635277e-07
-5.41548711e-09
6.42538366e-07
-5.68658384e-09
6.43476782e-07
-5.92353527e-09
6.44444472e-07
-6.12478768e-09
6.45435197e-07
-6.28925838e-09
6.46442628e-07
-6.41636512e-09
6.47460437e-07
-6.50602769e-09
6.48482402e-07
-6.55867258e-09
6.49502494e-07
-6.57521328e-09
6.50514967e-07
-6.55700658e-09
6.5151443e-07
-6.50581798e-09
6.52495913e-07
-6.42376765e-09
6.53454917e-07
-6.31325962e-09
6.54387449e-07
-6.1769283e-09
6.55290041e-07
-6.01756571e-09
6.56159765e-07
-5.83806286e-09
6.56994222e-07
-5.64133666e-09
6.57791532e-07
-5.43028877e-09
6.58550309e-07
-5.20774046e-09
6.5926963e-07
-4.97640079e-09
6.59949001e-07
-4.73882586e-09
6.60588315e-07
-4.49739677e-09
6.61187809e-07
-4.25429176e-09
6.61748026e-07
-4.01148124e-09
6.62269771e-07
-3.77072068e-09
6.62754066e-07
-3.53354384e-09
6.63202117e-07
-3.30127326e-09
6.63615276e-07
-3.07502754e-09
6.63995002e-07
-2.85572742e-09
6.64342839e-07
-2.64411436e-09
6.64660382e-07
-2.44076436e-09
6.64949256e-07
-2.24609933e-09
6.65211093e-07
-2.06040723e-09
6.65447519e-07
-1.88385507e-09
6.65660138e-07
-1.71650656e-09
6.65850527e-07
-1.55833442e-09
6.66020228e-07
-1.40923841e-09
6.66170735e-07
-1.26905793e-09
6.66303487e-07
-1.13758026e-09
6.66419847e-07
-1.01455166e-09
6.66521099e-07
-8.99685438e-10
6.66608443e-07
-7.92668782e-10
6.66682997e-07
-6.93171414e-10
6.667458e-07
-6.00850318e-10
6.66797825e-07
-5.15352358e-10
6.66839982e-07
-4.36318589e-10
6.66873127e-07
-3.63387178e-10
6.66898069e-07
-2.96196284e-10
6.66915575e-07
-2.34389202e-10
6.66926364e-07
-1.77619224e-10
6.66931106e-07
-1.25549354e-10
6.66930385e-07
-7.78370397e-11
6.6692459e-07
-3.40639567e-11
6.66913741e-07
6.25035632e-12
6.66899481e-07
4.18183527e-11
6.66881769e-07
7.456994e-11
6.6686097e-07
1.04273303e-10
6.66837755e-07
1.31102426e-10
6.66812649e-07
1.55319414e-10
6.66785911e-07
1.77162253e-10
6.66757724e-07
1.96790126e-10
6.66728258e-07
2.14316561e-10
6.66697666e-07
2.29851196e-10
6.6666608e-07
2.43509879e-10
6.66633626e-07
2.554102e-10
6.66600428e-07
2.65671316e-10
6.66566609e-07
2.74412374e-10
6.6653229e-07
2.81751573e-10
6.66497591e-07
2.87803448e-10
6.66462627e-07
2.92676874e-10
6.66427508e-07
2.96473335e-10
6.66392337e-07
2.99288465e-10
6.66357208e-07
3.01213721e-10
6.66322203e-07
3.02330726e-10
6.66287393e-07
3.02713112e-10
6.66252842e-07
3.02426718e-10
6.66218605e-07
3.01531194e-10
6.66184727e-07
3.00080572e-10
6.66151245e-07
2.98124325e-10
6.66118192e-07
2.95707525e-10
6.66085595e-07
2.92871914e-10
6.66053475e-07
2.89656401e-10
6.66021851e-07
2.8609703e-10
6.65990741e-07
2.8222774e-10
6.6596016e-07
2.78080525e-10
6.65930124e-07
2.73684968e-10
6.65900647e-07
2.69068385e-10
6.65871742e-07
2.64255985e-10
6.65843423e-07
2.59270622e-10
6.65815699e-07
2.54133165e-10
6.65788581e-07
2.48862109e-10
6.65762078e-07
2.43473846e-10
6.65736197e-07
2.37982186e-10
6.65710945e-07
2.32399088e-10
6.65686328e-07
2.26733301e-10
6.65662349e-07
2.20994997e-10
6.65639016e-07
2.15174966e-10
6.65616332e-07
2.0932558e-10
6.65594333e-07
2.03207768e-10
6.6557302e-07
1.97795336e-10
1.88296466e-10
6.66625774e-07
2.06933713e-10
6.66523405e-07
5.01489586e-10
6.66388395e-07
6.27532073e-10
6.66249728e-07
5.94041756e-10
6.66133143e-07
4.27608705e-10
6.6606284e-07
1.47284187e-10
6.66050985e-07
-2.30407427e-10
6.66117838e-07
-6.89670214e-10
6.66273162e-07
-1.18338081e-09
6.66514306e-07
-1.63811749e-09
6.66823332e-07
-1.96790474e-09
6.67168559e-07
-2.09873168e-09
6.67509903e-07
-1.99031122e-09
6.67806415e-07
-1.64627569e-09
6.68023873e-07
-1.11078166e-09
6.681406e-07
-4.55421948e-10
6.68143301e-07
2.40509348e-10
6.68036982e-07
8.98446307e-10
6.67837478e-07
1.45800806e-09
6.67568497e-07
1.87846514e-09
6.67256865e-07
2.1396467e-09
6.66929421e-07
2.23875472e-09
6.66611649e-07
2.18618366e-09
6.66326321e-07
2.00242535e-09
6.66091929e-07
1.71694165e-09
6.65920899e-07
1.36907361e-09
6.6581747e-07
1.00942139e-09
6.65775692e-07
6.98855379e-10
6.65778462e-07
5.02741438e-10
6.65798432e-07
4.80055418e-10
6.65800697e-07
6.70034e-10
6.65747444e-07
1.08031823e-09
6.65604566e-07
1.68090337e-09
6.65348297e-07
2.40783252e-09
6.64969564e-07
3.17677011e-09
6.64474667e-07
3.9028782e-09
6.63882115e-07
4.52091138e-09
6.63216705e-07
4.99897472e-09
6.62502822e-07
5.34145611e-09
6.61759074e-07
5.58071145e-09
6.60995738e-07
5.76148005e-09
6.60215277e-07
5.92457763e-09
6.59415044e-07
6.09588459e-09
6.58590651e-07
6.28347323e-09
6.57738657e-07
6.48175532e-09
6.56857861e-07
6.67889946e-09
6.55949312e-07
6.86349156e-09
6.55015569e-07
7.02806926e-09
6.54059879e-07
7.16938746e-09
6.53085638e-07
7.28677118e-09
6.52096223e-07
7.38020344e-09
6.51095075e-07
7.44916272e-09
6.50085829e-07
7.49238801e-09
6.49072398e-07
7.50820783e-09
6.48058978e-07
7.49497719e-09
6.47049988e-07
7.45135521e-09
6.46049997e-07
7.37638102e-09
6.45063664e-07
7.26943776e-09
6.44095673e-07
7.13019409e-09
6.43150692e-07
6.95857191e-09
6.42233325e-07
6.75473975e-09
6.41348072e-07
6.51911465e-09
6.40499295e-07
6.25235551e-09
6.3969119e-07
5.95534891e-09
6.38927777e-07
5.6291836e-09
6.38212887e-07
5.27513001e-09
6.3755015e-07
4.89462389e-09
6.36942977e-07
4.48924067e-09
6.36394539e-07
4.06068462e-09
6.35907752e-07
3.61076289e-09
6.35485274e-07
3.14135303e-09
6.35129514e-07
2.65438661e-09
6.34842645e-07
2.15183449e-09
6.34626603e-07
1.63570753e-09
6.34483032e-07
1.10807751e-09
6.34413435e-07
5.71102366e-10
6.34420049e-07
2.71398781e-11
6.34502543e-07
-5.21316709e-10
6.34662213e-07
-1.07134117e-09
6.34899188e-07
-1.62028943e-09
6.35213334e-07
-2.165298e-09
6.35604078e-07
-2.70321318e-09
6.36070302e-07
-3.23066926e-09
6.36610283e-07
-3.74414982e-09
6.37221665e-07
-4.24000848e-09
6.37901436e-07
-4.71452503e-09
6.3864592e-07
-5.16397605e-09
6.39450786e-07
-5.58473056e-09
6.40311089e-07
-5.97332613e-09
6.41221322e-07
-6.32657232e-09
6.42175483e-07
-6.6416377e-09
6.43167158e-07
-6.91614048e-09
6.44189618e-07
-7.14820837e-09
6.45235917e-07
-7.33654416e-09
6.46299007e-07
-7.48046297e-09
6.47371852e-07
-7.57989681e-09
6.48447545e-07
-7.63540113e-09
6.49519421e-07
-7.64813037e-09
6.50581156e-07
-7.61978327e-09
6.51626856e-07
-7.55255674e-09
6.52651135e-07
-7.44907584e-09
6.53649162e-07
-7.31230402e-09
6.54616706e-07
-7.14547357e-09
6.55550153e-07
-6.95199445e-09
6.56446513e-07
-6.73538028e-09
6.57303403e-07
-6.49915914e-09
6.58119032e-07
-6.24682215e-09
6.58892164e-07
-5.981746e-09
6.59622076e-07
-5.70715485e-09
6.60308514e-07
-5.4260732e-09
6.60951644e-07
-5.1413009e-09
6.61551994e-07
-4.85538265e-09
6.62110412e-07
-4.570604e-09
6.62628007e-07
-4.28898566e-09
6.63106106e-07
-4.01227841e-09
6.6354621e-07
-3.74197775e-09
6.6394995e-07
-3.47933477e-09
6.64319054e-07
-3.22536542e-09
6.64655311e-07
-2.9808738e-09
6.64960545e-07
-2.74647019e-09
6.65236589e-07
-2.52258609e-09
6.65485267e-07
-2.3094988e-09
6.65708372e-07
-2.10734705e-09
6.65907654e-07
-1.91615067e-09
6.66084805e-07
-1.73582355e-09
6.66241445e-07
-1.56619384e-09
6.66379113e-07
-1.4070212e-09
6.66499267e-07
-1.25801194e-09
6.6660329e-07
-1.11883571e-09
6.66692493e-07
-9.89134269e-10
6.66768117e-07
-8.68524863e-10
6.66831332e-07
-7.56605788e-10
6.66883235e-07
-6.52960162e-10
6.66924848e-07
-5.57159902e-10
6.66957118e-07
-4.68772507e-10
6.66980924e-07
-3.87366052e-10
6.66997078e-07
-3.12513056e-10
6.67006328e-07
-2.43795238e-10
6.67009366e-07
-1.80808205e-10
6.67006838e-07
-1.2317313e-10
6.66999424e-07
-7.05837208e-11
6.66988158e-07
-2.2978194e-11
6.66973963e-07
2.03844223e-11
6.66955407e-07
6.03386359e-11
6.66933745e-07
9.62093464e-11
6.66909349e-07
1.28649774e-10
6.66882458e-07
1.5797399e-10
6.6685336e-07
1.84393437e-10
6.66822434e-07
2.08061927e-10
6.66790056e-07
2.2914138e-10
6.66756543e-07
2.47804886e-10
6.66722146e-07
2.64226092e-10
6.66687065e-07
2.78573698e-10
6.66651449e-07
2.91012615e-10
6.66615416e-07
3.01695402e-10
6.66579071e-07
3.10752709e-10
6.66542511e-07
3.18310583e-10
6.66505825e-07
3.24491629e-10
6.66469094e-07
3.29412346e-10
6.66432393e-07
3.3318193e-10
6.66395788e-07
3.35901778e-10
6.66359346e-07
3.37665981e-10
6.66323129e-07
3.38560084e-10
6.66287192e-07
3.38662447e-10
6.66251587e-07
3.38043941e-10
6.66216363e-07
3.36769232e-10
6.6618156e-07
3.34897202e-10
6.66147217e-07
3.32482085e-10
6.66113366e-07
3.295736e-10
6.66080035e-07
3.26218044e-10
6.66047248e-07
3.22458704e-10
6.66015025e-07
3.18335618e-10
6.65983382e-07
3.13886232e-10
6.65952333e-07
3.09145446e-10
6.6592189e-07
3.04145189e-10
6.6589206e-07
2.98914928e-10
6.65862851e-07
2.93481605e-10
6.65834269e-07
2.87869232e-10
6.6580632e-07
2.8209954e-10
6.65779007e-07
2.7619175e-10
6.65752335e-07
2.70162964e-10
6.65726307e-07
2.6402764e-10
6.65700924e-07
2.57798477e-10
6.6567619e-07
2.5148488e-10
6.65652103e-07
2.45098486e-10
6.65628664e-07
2.38631248e-10
6.65605856e-07
2.32146761e-10
6.65583675e-07
2.25414129e-10
6.65561893e-07
2.19546463e-10
2.0956106e-10
6.66625815e-07
2.47529446e-10
6.6652395e-07
6.03473633e-10
6.66390123e-07
7.61467951e-10
6.66252598e-07
7.31588841e-10
6.66135702e-07
5.44524139e-10
6.66059594e-07
2.23437592e-10
6.66050468e-07
-2.21048276e-10
6.66121807e-07
-7.60799256e-10
6.66282084e-07
-1.34342544e-09
6.66527979e-07
-1.88377525e-09
6.66841745e-07
-2.2814293e-09
6.67192236e-07
-2.44898531e-09
6.67540048e-07
-2.3378977e-09
6.67844767e-07
-1.95078847e-09
6.68071845e-07
-1.33768023e-09
6.68197232e-07
-5.80669427e-10
6.68212956e-07
2.2487262e-10
6.68121935e-07
9.89493765e-10
6.6793853e-07
1.64140431e-09
6.67684363e-07
2.13258587e-09
6.67385226e-07
2.43870411e-09
6.67068073e-07
2.5558034e-09
6.66758675e-07
2.4954614e-09
6.66480046e-07
2.28092587e-09
6.66251123e-07
1.94573471e-09
6.6608516e-07
1.53490579e-09
6.65987634e-07
1.10681378e-09
6.65953936e-07
7.32416059e-10
6.65967672e-07
4.88856888e-10
6.66000805e-07
4.46747899e-10
6.66016995e-07
6.53638536e-10
6.65977663e-07
1.11940569e-09
6.65848573e-07
1.80970526e-09
6.65605745e-07
2.6503277e-09
6.65239444e-07
3.54269714e-09
6.64754998e-07
4.38691021e-09
6.64170005e-07
5.10545144e-09
6.63508705e-07
5.65978217e-09
6.62795366e-07
6.05426409e-09
6.62048816e-07
6.32669422e-09
6.61279682e-07
6.53000905e-09
6.60490734e-07
6.71288495e-09
6.59679485e-07
6.90645845e-09
6.5884157e-07
7.12068199e-09
6.57973486e-07
7.34910332e-09
6.57073968e-07
7.57765484e-09
6.56144036e-07
7.79263741e-09
6.55186281e-07
7.9850178e-09
6.54204031e-07
8.1508146e-09
6.53200803e-07
8.28916332e-09
6.52180131e-07
8.40002973e-09
6.5114564e-07
8.48280152e-09
6.50101185e-07
8.53598905e-09
6.49050932e-07
8.55760919e-09
6.47999355e-07
8.54570706e-09
6.46951182e-07
8.49869111e-09
6.45911311e-07
8.41542703e-09
6.44884746e-07
8.29519564e-09
6.4387653e-07
8.13762225e-09
6.42891702e-07
7.94263681e-09
6.41935241e-07
7.71046542e-09
6.41012018e-07
7.4416335e-09
6.40126743e-07
7.13696077e-09
6.39283912e-07
6.79754791e-09
6.38487759e-07
6.42474602e-09
6.37742218e-07
6.02012155e-09
6.37050919e-07
5.58541417e-09
6.36417212e-07
5.12248109e-09
6.35844202e-07
4.63326874e-09
6.35334792e-07
4.11978734e-09
6.34891707e-07
3.58409368e-09
6.34517494e-07
3.02829805e-09
6.34214501e-07
2.45457262e-09
6.3398484e-07
1.8651615e-09
6.3383038e-07
1.26238008e-09
6.33752704e-07
6.48672651e-10
6.33753102e-07
2.66929438e-11
6.33833137e-07
-6.01348053e-10
6.33993829e-07
-1.23197701e-09
6.34235771e-07
-1.8621212e-09
6.34559003e-07
-2.48836569e-09
6.34963044e-07
-3.10704102e-09
6.35446861e-07
-3.71422719e-09
6.36008802e-07
-4.30578898e-09
6.36646547e-07
-4.87741261e-09
6.37357071e-07
-5.42467353e-09
6.38136621e-07
-5.94311611e-09
6.38980702e-07
-6.42837108e-09
6.39884099e-07
-6.87625375e-09
6.40840915e-07
-7.28289376e-09
6.41844643e-07
-7.64484695e-09
6.42888255e-07
-7.95921249e-09
6.43964319e-07
-8.22371317e-09
6.45065129e-07
-8.43677931e-09
6.46182852e-07
-8.59759665e-09
6.47309668e-07
-8.70611282e-09
6.48437919e-07
-8.76304288e-09
6.49560241e-07
-8.76983641e-09
6.50669684e-07
-8.72860742e-09
6.5175982e-07
-8.64207246e-09
6.52824823e-07
-8.51346021e-09
6.53859533e-07
-8.34639795e-09
6.5485949e-07
-8.14482165e-09
6.5582096e-07
-7.91286209e-09
6.56740924e-07
-7.65475213e-09
6.57617063e-07
-7.37471836e-09
6.58447726e-07
-7.07691758e-09
6.59231878e-07
-6.76534554e-09
6.59969051e-07
-6.44379217e-09
6.60659285e-07
-6.11578811e-09
6.61303063e-07
-5.78457775e-09
6.61901249e-07
-5.45308698e-09
6.62455029e-07
-5.12392178e-09
6.6296585e-07
-4.79936506e-09
6.63435368e-07
-4.48137449e-09
6.63865394e-07
-4.17160251e-09
6.64257852e-07
-3.87141197e-09
6.64614737e-07
-3.58189009e-09
6.64938081e-07
-3.30387757e-09
6.65229923e-07
-3.03799131e-09
6.65492282e-07
-2.78464337e-09
6.65727138e-07
-2.5440707e-09
6.65936412e-07
-2.31635569e-09
6.66121962e-07
-2.10145266e-09
6.66285576e-07
-1.89920673e-09
6.66428976e-07
-1.70937738e-09
6.66553809e-07
-1.5316527e-09
6.66661644e-07
-1.36565764e-09
6.66753954e-07
-1.21096689e-09
6.66832106e-07
-1.06711632e-09
6.66897358e-07
-9.33614602e-10
6.66950864e-07
-8.09957549e-10
6.66993687e-07
-6.95636616e-10
6.67026812e-07
-5.90143436e-10
6.67051148e-07
-4.92974784e-10
6.67067546e-07
-4.03635641e-10
6.670768e-07
-3.2164228e-10
6.67079653e-07
-2.46527513e-10
6.67076812e-07
-1.77844475e-10
6.67068931e-07
-1.15160492e-10
6.67056489e-07
-5.79856039e-11
6.6703903e-07
-5.28712015e-12
6.67017942e-07
4.15352084e-11
6.66994245e-07
8.40743996e-11
6.66967868e-07
1.22612979e-10
6.66939223e-07
1.57317035e-10
6.66908745e-07
1.88471442e-10
6.6687677e-07
2.16387943e-10
6.66843498e-07
2.41352705e-10
6.66809081e-07
2.6357445e-10
6.66773684e-07
2.8321253e-10
6.66737475e-07
3.0044077e-10
6.66700609e-07
3.15440212e-10
6.66663235e-07
3.28381337e-10
6.66625498e-07
3.39424154e-10
6.66587521e-07
3.48718041e-10
6.66549413e-07
3.56404651e-10
6.6651127e-07
3.62617501e-10
6.66473183e-07
3.67481324e-10
6.66435232e-07
3.71112883e-10
6.66397492e-07
3.73620817e-10
6.6636003e-07
3.75106266e-10
6.66322906e-07
3.75662084e-10
6.66286173e-07
3.75374023e-10
6.66249874e-07
3.74320249e-10
6.66214048e-07
3.72572555e-10
6.66178727e-07
3.70196443e-10
6.66143935e-07
3.67251986e-10
6.66109693e-07
3.63793682e-10
6.66076017e-07
3.5987154e-10
6.66042923e-07
3.55531571e-10
6.66010421e-07
3.50815704e-10
6.65978523e-07
3.45762753e-10
6.65947238e-07
3.40408706e-10
6.65916575e-07
3.34786407e-10
6.65886542e-07
3.28926218e-10
6.65857146e-07
3.22856052e-10
6.65828394e-07
3.16600943e-10
6.65800289e-07
3.10183711e-10
6.65772835e-07
3.03624671e-10
6.65746036e-07
2.96942025e-10
6.65719892e-07
2.90151296e-10
6.65694405e-07
2.8326626e-10
6.65669573e-07
2.76297447e-10
6.65645395e-07
2.69257407e-10
6.65621869e-07
2.62139075e-10
6.65598994e-07
2.55000515e-10
6.65576798e-07
2.47600442e-10
6.65555303e-07
2.40981864e-10
2.29836019e-10
6.6662469e-07
2.89350275e-10
6.66519414e-07
7.08867388e-10
6.66380656e-07
9.00316947e-10
6.66238298e-07
8.73920068e-10
6.66118971e-07
6.63793214e-10
6.66047026e-07
2.95342339e-10
6.66039628e-07
-2.13771706e-10
6.66116297e-07
-8.37574799e-10
6.66286959e-07
-1.5142097e-09
6.66548618e-07
-2.14555512e-09
6.66882567e-07
-2.61549858e-09
6.67255967e-07
-2.82250081e-09
6.67627313e-07
-2.7093508e-09
6.67954054e-07
-2.27762243e-09
6.68199912e-07
-1.58361311e-09
6.68340314e-07
-7.21132088e-10
6.683653e-07
1.99852001e-10