/*--------------------------------*- C++ -*----------------------------------*\
| =========                 |                                                 |
| \\      /  F ield         | OpenFOAM: The Open Source CFD Toolbox           |
|  \\    /   O peration     | Version:  v2012                                 |
|   \\  /    A nd           | Website:  www.openfoam.com                      |
|    \\/     M anipulation  |                                                 |
\*---------------------------------------------------------------------------*/
FoamFile
{
    version     2.0;
    format      ascii;
    class       volScalarField;
    location    "2.14";
    object      rAU;
}
// * * * * * * * * * * * * * * * * * * * * * * * * * * * * * * * * * * * * * //

dimensions      [0 0 1 0 0 0 0];


internalField   nonuniform List<scalar> 
28416
(
0.000622232614
0.00062224333
0.000622243972
0.000622245793
0.00062224834
0.000622248797
0.000622247246
0.000622244896
0.000622241852
0.000622238447
0.000622235158
0.000622232509
0.000622230928
0.000622230674
0.000622231791
0.00062223411
0.000622231126
0.00062222598
0.000622222412
0.000622220645
0.000622220714
0.000622222489
0.000622225701
0.000622229977
0.000622234855
0.000622239814
0.000622244306
0.000622247806
0.000622249879
0.000622250258
0.000622248923
0.000622246142
0.000622242456
0.000622238602
0.000622235359
0.000622233386
0.000622233084
0.000622234535
0.000622237534
0.000622241698
0.000622246605
0.000622251921
0.000622257457
0.000622263172
0.000622269117
0.000622275375
0.000622282011
0.000622289053
0.000622296496
0.000622304316
0.000622312489
0.000622320989
0.0006223298
0.000622338902
0.000622348275
0.000622357895
0.000622367734
0.000622377759
0.000622387936
0.000622398228
0.000622408596
0.000622419002
0.000622429403
0.000622439758
0.000622450024
0.000622460156
0.000622470115
0.00062247985
0.000622489317
0.00062249847
0.000622507256
0.000622515627
0.000622523534
0.000622530923
0.000622537772
0.000622544085
0.000622549874
0.000622548366
0.000622544238
0.000622539424
0.000622533948
0.000622527841
0.00062252113
0.00062251385
0.000622506041
0.000622497751
0.000622489026
0.000622479925
0.000622470503
0.00062246082
0.000622450936
0.000622440915
0.000622430814
0.000622420691
0.000622410606
0.000622400609
0.000622390751
0.000622381083
0.000622371642
0.000622362468
0.000622353598
0.000622345055
0.000622336865
0.000622329044
0.00062232161
0.000622314567
0.000622307925
0.000622301681
0.000622295834
0.000622290378
0.000622285309
0.000622280612
0.000622276276
0.000622272291
0.000622268638
0.000622265304
0.000622262275
0.000622259531
0.000622257055
0.000622254836
0.000622252853
0.000622251091
0.000622249534
0.000622248171
0.000622246983
0.000622245958
0.000622245085
0.000622244348
0.000622243734
0.000622243236
0.00062224284
0.000622242535
0.000622242317
0.000622242175
0.0006222421
0.000622242091
0.000622242138
0.000622242236
0.000622242384
0.000622242576
0.000622242807
0.000622243068
0.000622243348
0.00062224322
0.000622242865
0.000622242587
0.000622242368
0.000622242198
0.000622242077
0.000622242001
0.000622241967
0.000622241979
0.000622242032
0.000622242123
0.000622242253
0.000622242416
0.000622242608
0.000622242829
0.000622243072
0.000622243335
0.000622243614
0.00062224391
0.000622244217
0.000622244536
0.000622244863
0.000622245197
0.000622245537
0.000622245884
0.000622246233
0.000622246585
0.000622246942
0.000622247299
0.000622247655
0.000622248015
0.000622248372
0.000622248727
0.000622249082
0.000622249433
0.000622249782
0.000622250125
0.000622250468
0.000622250804
0.000622251135
0.000622251463
0.000622251785
0.0006222521
0.000622252411
0.000622252719
0.000622253004
0.000622264901
0.000622223909
0.000622234707
0.000622235362
0.000622237072
0.000622239441
0.00062224149
0.00062223966
0.000622236672
0.000622232782
0.000622228409
0.000622224153
0.000622220672
0.000622218513
0.000622218004
0.000622219202
0.000622221925
0.000622221191
0.000622217823
0.000622216031
0.000622215851
0.000622217161
0.000622219728
0.00062222324
0.000622227342
0.00062223166
0.000622235792
0.000622239348
0.000622241966
0.000622243373
0.000622243444
0.000622242268
0.000622240171
0.00062223769
0.000622235477
0.00062223417
0.000622234254
0.000622235961
0.000622239248
0.000622243842
0.000622249358
0.000622255417
0.000622261746
0.000622268216
0.000622274824
0.000622281641
0.000622288748
0.000622296203
0.000622304023
0.000622312195
0.000622320688
0.000622329473
0.000622338521
0.000622347808
0.00062235731
0.000622366999
0.000622376845
0.000622386814
0.000622396867
0.000622406966
0.000622417069
0.000622427135
0.000622437121
0.000622446984
0.00062245668
0.000622466164
0.000622475394
0.00062248433
0.000622492925
0.000622501138
0.000622508932
0.000622516263
0.000622523093
0.000622529388
0.000622535112
0.000622540241
0.000622544752
0.000622548591
0.000622545374
0.000622540509
0.000622534935
0.000622528677
0.000622521765
0.000622514228
0.000622506105
0.00062249744
0.000622488286
0.000622478694
0.000622468729
0.000622458452
0.000622447929
0.000622437227
0.000622426418
0.000622415566
0.000622404736
0.000622393996
0.000622383401
0.000622373008
0.00062236287
0.000622353031
0.00062234353
0.000622334405
0.000622325679
0.000622317377
0.000622309512
0.000622302098
0.000622295135
0.000622288629
0.000622282572
0.000622276958
0.000622271774
0.000622267011
0.000622262649
0.000622258671
0.000622255062
0.0006222518
0.000622248864
0.000622246238
0.000622243898
0.000622241824
0.000622240002
0.000622238408
0.000622237025
0.000622235836
0.000622234828
0.000622233982
0.000622233283
0.000622232721
0.000622232281
0.000622231948
0.000622231718
0.000622231574
0.000622231508
0.000622231515
0.000622231583
0.000622231705
0.00062223188
0.000622232097
0.000622232351
0.000622232642
0.000622232961
0.000622233303
0.000622233663
0.00062223404
0.00062223398
0.00062223383
0.00062223374
0.000622233702
0.00062223371
0.000622233763
0.000622233854
0.000622233978
0.000622234134
0.000622234317
0.000622234524
0.000622234756
0.000622235006
0.000622235273
0.000622235558
0.000622235855
0.000622236164
0.000622236482
0.00062223681
0.000622237142
0.000622237482
0.000622237825
0.00062223817
0.000622238517
0.000622238867
0.000622239216
0.000622239564
0.000622239913
0.000622240259
0.000622240602
0.000622240945
0.000622241283
0.000622241617
0.00062224195
0.000622242277
0.0006222426
0.000622242916
0.00062224323
0.000622243538
0.000622243839
0.000622244137
0.000622244428
0.000622244712
0.000622244992
0.000622245267
0.000622245528
0.000622257373
0.000622223523
0.000622233732
0.000622234066
0.00062223571
0.000622238218
0.000622241246
0.00062223952
0.000622235773
0.000622231065
0.00062222594
0.000622221137
0.000622217433
0.000622215429
0.00062221544
0.000622217449
0.000622221178
0.000622221204
0.000622216732
0.000622213905
0.000622212858
0.000622213541
0.000622215748
0.000622219165
0.000622223418
0.000622228095
0.000622232745
0.000622236894
0.000622240076
0.000622241899
0.000622242126
0.00062224077
0.00062223813
0.000622234773
0.000622231443
0.000622228913
0.000622227817
0.000622228518
0.000622231045
0.000622235137
0.000622240359
0.000622246253
0.000622252469
0.000622258822
0.00062226529
0.000622271947
0.000622278898
0.000622286223
0.000622293951
0.000622302078
0.000622310575
0.000622319408
0.00062232855
0.000622337975
0.000622347662
0.000622357583
0.000622367709
0.000622378003
0.000622388429
0.000622398944
0.000622409505
0.000622420069
0.000622430589
0.000622441019
0.000622451313
0.000622461422
0.0006224713
0.000622480906
0.00062249019
0.000622499109
0.000622507625
0.00062251569
0.000622523265
0.000622530313
0.000622536792
0.000622542667
0.000622547911
0.000622552505
0.000622548339
0.000622542745
0.000622536426
0.000622529403
0.000622521713
0.000622513387
0.000622504471
0.000622495014
0.000622485072
0.000622474705
0.00062246398
0.000622452965
0.000622441733
0.000622430357
0.000622418915
0.000622407476
0.000622396112
0.000622384896
0.000622373888
0.000622363147
0.00062235273
0.00062234268
0.000622333037
0.000622323837
0.000622315102
0.000622306853
0.0006222991
0.000622291851
0.000622285103
0.000622278855
0.000622273093
0.000622267807
0.000622262978
0.00062225859
0.00062225462
0.000622251044
0.000622247845
0.000622244994
0.000622242468
0.000622240247
0.000622238306
0.000622236621
0.000622235175
0.000622233945
0.000622232912
0.000622232057
0.000622231367
0.000622230822
0.000622230408
0.000622230115
0.000622229925
0.000622229827
0.000622229814
0.000622229873
0.000622229994
0.000622230174
0.000622230403
0.000622230673
0.000622230983
0.000622231325
0.000622231694
0.000622232089
0.000622232503
0.000622232935
0.00062223338
0.000622233778
0.000622233606
0.000622233457
0.000622233368
0.000622233333
0.000622233341
0.000622233392
0.000622233478
0.000622233597
0.000622233749
0.000622233929
0.000622234135
0.000622234366
0.000622234618
0.000622234888
0.000622235176
0.000622235478
0.000622235792
0.000622236116
0.00062223645
0.000622236789
0.000622237136
0.000622237485
0.000622237838
0.000622238191
0.000622238547
0.000622238903
0.000622239257
0.000622239613
0.000622239966
0.000622240316
0.000622240665
0.000622241011
0.000622241351
0.000622241691
0.000622242025
0.000622242354
0.000622242678
0.000622242999
0.000622243314
0.000622243622
0.000622243927
0.000622244225
0.000622244516
0.000622244803
0.000622245085
0.000622245352
0.000622257202
0.000622223111
0.000622232758
0.000622232871
0.000622234613
0.00062223746
0.000622240983
0.000622240068
0.000622235565
0.000622229931
0.000622223812
0.000622218093
0.0006222137
0.00062221135
0.000622211404
0.000622213824
0.000622218237
0.000622219066
0.000622213551
0.000622209963
0.000622208467
0.000622208993
0.000622211303
0.000622215031
0.000622219743
0.000622224962
0.000622230164
0.000622234801
0.000622238319
0.00062224024
0.000622240246
0.000622238297
0.0006222347
0.000622230102
0.000622225385
0.000622221484
0.000622219185
0.000622218954
0.000622220856
0.000622224599
0.000622229672
0.000622235521
0.000622241717
0.000622248027
0.000622254416
0.000622260977
0.000622267839
0.000622275108
0.000622282829
0.000622291005
0.000622299607
0.000622308601
0.000622317958
0.000622327655
0.000622337668
0.000622347973
0.000622358539
0.000622369329
0.000622380303
0.000622391417
0.000622402624
0.000622413878
0.000622425128
0.000622436324
0.000622447416
0.000622458352
0.000622469079
0.00062247955
0.000622489712
0.000622499516
0.000622508917
0.000622517867
0.000622526322
0.000622534243
0.000622541589
0.00062254832
0.000622554405
0.000622559793
0.000622554716
0.000622548358
0.000622541235
0.000622533375
0.000622524814
0.000622515588
0.000622505746
0.000622495339
0.000622484434
0.000622473092
0.000622461392
0.00062244941
0.000622437226
0.000622424925
0.000622412594
0.000622400312
0.000622388161
0.000622376219
0.000622364556
0.000622353235
0.000622342318
0.000622331852
0.000622321876
0.000622312429
0.00062230353
0.000622295196
0.000622287434
0.000622280249
0.000622273631
0.000622267572
0.000622262054
0.000622257058
0.000622252559
0.000622248535
0.000622244956
0.000622241793
0.000622239022
0.000622236609
0.000622234526
0.00062223275
0.00062223125
0.000622230001
0.000622228983
0.000622228169
0.000622227539
0.000622227073
0.000622226755
0.000622226566
0.000622226491
0.000622226518
0.000622226633
0.000622226823
0.000622227082
0.000622227398
0.000622227761
0.000622228168
0.000622228609
0.000622229077
0.000622229571
0.000622230083
0.00062223061
0.00062223115
0.000622231698
0.000622232251
0.000622232801
0.000622233074
0.000622232859
0.000622232719
0.000622232639
0.000622232615
0.000622232641
0.000622232715
0.000622232829
0.000622232977
0.000622233159
0.000622233367
0.000622233599
0.000622233855
0.000622234129
0.000622234418
0.000622234726
0.000622235045
0.000622235375
0.000622235714
0.000622236063
0.000622236417
0.000622236777
0.000622237141
0.000622237507
0.000622237874
0.000622238243
0.000622238612
0.000622238979
0.000622239347
0.000622239711
0.000622240072
0.000622240432
0.000622240788
0.000622241138
0.000622241487
0.00062224183
0.000622242168
0.0006222425
0.000622242829
0.000622243152
0.000622243468
0.00062224378
0.000622244086
0.000622244385
0.00062224468
0.00062224497
0.000622245245
0.000622257112
0.000622222694
0.000622231723
0.000622231507
0.000622233204
0.000622236264
0.000622240258
0.000622240183
0.000622234844
0.000622228272
0.000622221245
0.0006222148
0.000622209996
0.000622207625
0.00062220805
0.00062221117
0.000622216507
0.000622218511
0.000622211772
0.000622207098
0.000622204747
0.0006222047
0.000622206728
0.000622210453
0.000622215409
0.000622221074
0.000622226858
0.000622232121
0.000622236198
0.000622238481
0.000622238546
0.000622236283
0.000622231986
0.000622226346
0.000622220351
0.000622215087
0.0006222115
0.000622210187
0.000622211285
0.000622214504
0.000622219273
0.000622224955
0.000622231037
0.000622237233
0.000622243491
0.00062224991
0.000622256645
0.000622263823
0.000622271507
0.000622279703
0.000622288385
0.000622297518
0.000622307072
0.000622317022
0.000622327348
0.000622338023
0.000622349016
0.00062236029
0.000622371801
0.000622383503
0.000622395345
0.000622407276
0.000622419241
0.000622431185
0.000622443052
0.000622454784
0.000622466327
0.00062247763
0.000622488636
0.000622499296
0.000622509563
0.000622519386
0.000622528717
0.000622537516
0.000622545735
0.000622553331
0.000622560268
0.000622566503
0.000622560601
0.000622553457
0.000622545507
0.00062253678
0.000622527316
0.000622517156
0.000622506352
0.000622494964
0.000622483063
0.00062247072
0.00062245802
0.000622445048
0.000622431897
0.000622418658
0.00062240543
0.000622392302
0.000622379365
0.000622366708
0.000622354406
0.00062234253
0.000622331147
0.000622320305
0.000622310046
0.000622300406
0.000622291403
0.000622283051
0.000622275352
0.000622268303
0.000622261889
0.000622256094
0.000622250893
0.000622246258
0.000622242157
0.000622238562
0.000622235434
0.000622232739
0.000622230445
0.000622228514
0.000622226914
0.000622225616
0.000622224586
0.000622223796
0.000622223223
0.000622222839
0.000622222622
0.00062222255
0.000622222609
0.000622222778
0.000622223041
0.000622223387
0.000622223801
0.00062222427
0.000622224789
0.000622225344
0.000622225929
0.000622226541
0.000622227169
0.000622227811
0.000622228464
0.000622229122
0.000622229782
0.000622230443
0.0006222311
0.000622231753
0.000622232404
0.000622232421
0.000622232231
0.000622232111
0.000622232051
0.000622232045
0.000622232085
0.000622232169
0.000622232292
0.000622232449
0.000622232641
0.000622232861
0.000622233105
0.000622233374
0.000622233662
0.000622233966
0.000622234288
0.000622234621
0.000622234965
0.000622235318
0.00062223568
0.000622236046
0.000622236418
0.000622236793
0.00062223717
0.000622237547
0.000622237926
0.000622238305
0.000622238681
0.000622239057
0.000622239431
0.0006222398
0.000622240169
0.000622240533
0.000622240892
0.000622241248
0.0006222416
0.000622241946
0.000622242286
0.000622242623
0.000622242953
0.000622243277
0.000622243597
0.00062224391
0.000622244216
0.000622244518
0.000622244815
0.000622245095
0.000622256964
0.000622222278
0.000622230707
0.000622230209
0.000622231923
0.00062223524
0.000622239669
0.000622240376
0.000622234174
0.000622226605
0.000622218562
0.000622211236
0.000622205838
0.000622203261
0.000622203902
0.000622207617
0.000622213826
0.000622217221
0.00062220932
0.00062220368
0.000622200622
0.000622200155
0.000622202047
0.000622205887
0.000622211167
0.000622217306
0.000622223648
0.000622229473
0.000622234017
0.000622236569
0.000622236596
0.000622233908
0.00062222878
0.000622221961
0.000622214567
0.000622207849
0.000622202917
0.000622200494
0.000622200783
0.000622203484
0.000622207966
0.000622213499
0.000622219486
0.000622225586
0.000622231726
0.000622238017
0.000622244637
0.000622251738
0.000622259402
0.000622267643
0.000622276436
0.000622285745
0.00062229554
0.000622305798
0.000622316498
0.000622327614
0.000622339114
0.000622350959
0.000622363102
0.000622375493
0.000622388078
0.000622400799
0.000622413599
0.000622426416
0.000622439191
0.000622451861
0.000622464364
0.000622476645
0.000622488639
0.000622500291
0.00062251155
0.000622522359
0.000622532669
0.000622542437
0.000622551613
0.000622560152
0.000622568011
0.000622575142
0.000622568516
0.000622560551
0.000622551731
0.000622542084
0.000622531652
0.000622520476
0.000622508613
0.000622496128
0.000622483098
0.000622469602
0.000622455739
0.000622441604
0.000622427301
0.000622412939
0.000622398628
0.000622384473
0.000622370575
0.000622357036
0.00062234394
0.000622331367
0.000622319388
0.000622308057
0.000622297416
0.000622287502
0.000622278328
0.000622269906
0.00062226223
0.000622255291
0.000622249066
0.000622243532
0.000622238652
0.000622234391
0.000622230709
0.000622227566
0.000622224919
0.000622222723
0.000622220941
0.000622219529
0.000622218449
0.000622217667
0.000622217146
0.000622216854
0.000622216764
0.000622216847
0.000622217079
0.000622217437
0.000622217904
0.000622218459
0.000622219086
0.000622219775
0.00062222051
0.000622221282
0.000622222085
0.000622222907
0.000622223742
0.000622224587
0.000622225433
0.000622226276
0.000622227116
0.000622227946
0.000622228764
0.000622229572
0.000622230366
0.000622231143
0.000622231719
0.000622231527
0.000622231364
0.000622231272
0.00062223124
0.000622231264
0.000622231336
0.000622231455
0.000622231611
0.0006222318
0.000622232022
0.00062223227
0.00062223254
0.000622232834
0.000622233145
0.000622233471
0.000622233813
0.000622234166
0.000622234529
0.000622234899
0.000622235279
0.000622235661
0.00062223605
0.00062223644
0.000622236832
0.000622237224
0.000622237619
0.000622238011
0.000622238401
0.000622238791
0.000622239176
0.000622239558
0.000622239938
0.000622240312
0.000622240681
0.000622241048
0.000622241408
0.000622241763
0.000622242112
0.000622242457
0.000622242796
0.000622243127
0.000622243455
0.000622243775
0.000622244089
0.000622244398
0.000622244703
0.000622244992
0.000622256877
0.00062222185
0.000622229651
0.000622228836
0.000622230539
0.000622234111
0.000622239034
0.000622240503
0.000622233389
0.000622224785
0.000622215719
0.000622207545
0.000622201619
0.000622198924
0.000622199871
0.00062220425
0.000622211362
0.00062221639
0.000622207223
0.000622200487
0.000622196588
0.000622195577
0.000622197226
0.000622201108
0.000622206676
0.000622213294
0.000622220234
0.000622226676
0.000622231744
0.000622234604
0.00062223462
0.000622231541
0.000622225627
0.000622217674
0.000622208904
0.000622200722
0.000622194401
0.0006221908
0.000622190197
0.000622192295
0.000622196406
0.000622201716
0.000622207545
0.000622213496
0.000622219475
0.000622225603
0.000622232083
0.00062223909
0.000622246724
0.000622255007
0.000622263915
0.000622273412
0.000622283467
0.000622294057
0.000622305162
0.000622316756
0.000622328806
0.000622341268
0.000622354095
0.00062236723
0.000622380614
0.000622394183
0.000622407873
0.000622421615
0.00062243534
0.000622448981
0.000622462469
0.000622475743
0.000622488739
0.000622501397
0.000622513665
0.000622525485
0.000622536805
0.000622547578
0.000622557752
0.000622567279
0.000622576114
0.000622584206
0.000622577009
0.000622568198
0.000622558469
0.000622547853
0.000622536393
0.000622524134
0.000622511136
0.000622497471
0.000622483223
0.000622468483
0.000622453359
0.000622437959
0.000622422404
0.000622406815
0.000622391321
0.000622376042
0.000622361094
0.000622346593
0.000622332636
0.000622319312
0.000622306698
0.000622294853
0.000622283821
0.000622273637
0.000622264312
0.000622255849
0.000622248238
0.000622241461
0.000622235484
0.000622230273
0.000622225782
0.000622221964
0.000622218769
0.000622216149
0.000622214048
0.000622212416
0.000622211208
0.000622210372
0.000622209864
0.000622209646
0.000622209676
0.000622209918
0.000622210345
0.000622210924
0.000622211629
0.000622212437
0.000622213332
0.000622214291
0.0006222153
0.000622216348
0.00062221742
0.000622218506
0.000622219599
0.000622220689
0.000622221771
0.000622222843
0.000622223897
0.00062222493
0.000622225945
0.000622226935
0.000622227899
0.00062222884
0.000622229753
0.000622230638
0.000622230829
0.000622230632
0.000622230506
0.000622230449
0.00062223045
0.000622230505
0.000622230606
0.000622230753
0.000622230936
0.000622231152
0.000622231401
0.000622231674
0.00062223197
0.000622232289
0.000622232623
0.000622232972
0.000622233336
0.00062223371
0.000622234093
0.000622234482
0.000622234879
0.000622235279
0.000622235683
0.000622236089
0.000622236495
0.0006222369
0.000622237307
0.000622237711
0.000622238112
0.000622238512
0.000622238909
0.0006222393
0.00062223969
0.000622240075
0.000622240453
0.000622240829
0.000622241199
0.000622241563
0.00062224192
0.000622242274
0.000622242621
0.00062224296
0.000622243296
0.000622243624
0.000622243945
0.000622244262
0.000622244573
0.000622244868
0.000622256755
0.000622221416
0.000622228581
0.000622227451
0.000622229153
0.000622232991
0.000622238402
0.000622240581
0.00062223252
0.000622222837
0.000622212696
0.000622203611
0.000622197091
0.000622194217
0.000622195419
0.000622200436
0.000622208467
0.000622215433
0.000622205023
0.00062219721
0.000622192484
0.000622190937
0.000622192352
0.00062219628
0.000622202131
0.000622209215
0.00062221673
0.000622223772
0.000622229357
0.000622232534
0.000622232546
0.000622229055
0.000622222296
0.000622213125
0.000622202888
0.000622193156
0.000622185374
0.000622180535
0.000622178991
0.000622180448
0.000622184161
0.000622189226
0.000622194878
0.000622200663
0.000622206465
0.000622212414
0.000622218737
0.000622225638
0.000622233234
0.000622241556
0.000622250585
0.000622260284
0.000622270622
0.000622281576
0.000622293128
0.000622305251
0.00062231791
0.000622331059
0.000622344645
0.000622358607
0.000622372878
0.000622387389
0.000622402067
0.000622416837
0.000622431626
0.000622446357
0.000622460955
0.000622475354
0.00062248948
0.000622503268
0.00062251666
0.000622529595
0.00062254202
0.000622553885
0.000622565137
0.000622575726
0.000622585604
0.000622594712
0.00062258712
0.000622577426
0.000622566745
0.000622555107
0.000622542551
0.000622529124
0.000622514889
0.000622499921
0.000622484316
0.000622468173
0.000622451616
0.000622434771
0.000622417776
0.000622400773
0.000622383911
0.000622367329
0.000622351164
0.000622335548
0.000622320592
0.000622306396
0.000622293049
0.000622280611
0.000622269129
0.000622258636
0.000622249138
0.000622240633
0.000622233098
0.000622226507
0.000622220812
0.000622215968
0.000622211915
0.000622208595
0.000622205946
0.000622203906
0.000622202412
0.000622201403
0.000622200824
0.000622200618
0.000622200735
0.00062220113
0.000622201757
0.000622202578
0.000622203562
0.000622204673
0.000622205886
0.000622207176
0.000622208524
0.00062220991
0.000622211317
0.000622212736
0.000622214153
0.000622215559
0.000622216951
0.000622218319
0.000622219659
0.00062222097
0.000622222245
0.000622223483
0.000622224686
0.000622225849
0.00062222697
0.000622228055
0.000622229099
0.000622229845
0.000622229715
0.00062222957
0.000622229494
0.000622229485
0.000622229534
0.000622229635
0.00062222978
0.000622229968
0.00062223019
0.000622230443
0.000622230727
0.000622231033
0.00062223136
0.000622231708
0.000622232071
0.000622232446
0.000622232835
0.000622233232
0.000622233637
0.000622234048
0.000622234465
0.000622234884
0.000622235307
0.000622235731
0.000622236155
0.000622236577
0.000622237
0.00062223742
0.000622237835
0.00062223825
0.00062223866
0.000622239064
0.000622239466
0.000622239861
0.000622240251
0.000622240637
0.000622241016
0.000622241389
0.000622241755
0.000622242117
0.000622242472
0.000622242819
0.000622243163
0.000622243499
0.000622243827
0.000622244151
0.000622244469
0.000622244772
0.000622256672
0.000622220973
0.000622227489
0.000622226037
0.000622227738
0.000622231853
0.00062223778
0.000622240612
0.000622231561
0.00062222076
0.000622209511
0.000622199499
0.000622192385
0.000622189348
0.000622190832
0.000622196514
0.000622205472
0.000622214615
0.000622202893
0.000622193946
0.000622188346
0.00062218623
0.000622187389
0.000622191357
0.000622197505
0.000622205083
0.00062221321
0.00062222088
0.000622226988
0.000622230459
0.000622230434
0.000622226504
0.000622218891
0.000622208493
0.000622196769
0.000622185449
0.000622176149
0.000622170005
0.000622167448
0.000622168192
0.000622171436
0.000622176193
0.00062218161
0.000622187175
0.000622192753
0.000622198482
0.000622204615
0.000622211384
0.000622218924
0.000622227278
0.000622236429
0.000622246341
0.000622256983
0.000622268334
0.000622280375
0.000622293078
0.000622306409
0.000622320316
0.000622334741
0.000622349616
0.000622364867
0.000622380415
0.000622396178
0.000622412072
0.00062242801
0.000622443908
0.000622459682
0.000622475259
0.000622490562
0.000622505523
0.00062252008
0.000622534174
0.000622547748
0.000622560753
0.000622573137
0.000622584847
0.000622595835
0.00062260604
0.000622598301
0.000622587703
0.000622576038
0.00062256333
0.000622549618
0.000622534946
0.00062251938
0.000622503002
0.000622485914
0.00062246823
0.000622450088
0.000622431634
0.000622413029
0.000622394439
0.000622376037
0.000622357987
0.00062234045
0.000622323579
0.000622307504
0.000622292339
0.000622278182
0.000622265099
0.000622253139
0.00062224233
0.000622232675
0.000622224159
0.00062221675
0.000622210406
0.000622205065
0.000622200668
0.000622197138
0.000622194404
0.000622192387
0.000622191015
0.000622190211
0.000622189904
0.00062219003
0.000622190524
0.000622191329
0.000622192394
0.000622193671
0.000622195116
0.000622196695
0.000622198374
0.000622200123
0.000622201918
0.000622203742
0.000622205574
0.000622207399
0.000622209209
0.000622210989
0.000622212732
0.000622214436
0.00062221609
0.000622217692
0.000622219243
0.000622220738
0.000622222176
0.00062222356
0.000622224889
0.000622226162
0.000622227384
0.000622228545
0.000622228709
0.000622228543
0.000622228457
0.000622228437
0.000622228482
0.000622228581
0.000622228728
0.000622228918
0.00062222915
0.000622229414
0.000622229707
0.000622230029
0.000622230372
0.000622230733
0.000622231114
0.000622231507
0.000622231911
0.000622232328
0.000622232752
0.000622233182
0.000622233615
0.000622234054
0.000622234494
0.000622234936
0.000622235377
0.000622235818
0.000622236256
0.000622236693
0.000622237127
0.000622237556
0.000622237983
0.000622238405
0.000622238821
0.000622239234
0.000622239641
0.000622240041
0.000622240437
0.000622240826
0.000622241209
0.000622241584
0.000622241955
0.000622242319
0.000622242674
0.000622243026
0.000622243369
0.000622243705
0.000622244036
0.000622244362
0.000622244669
0.000622256575
0.000622220521
0.000622226375
0.000622224596
0.0006222263
0.000622230708
0.000622237174
0.000622240594
0.00062223051
0.000622218548
0.000622206151
0.000622195177
0.00062218744
0.000622184215
0.000622185964
0.000622192301
0.000622202191
0.00062221364
0.000622200795
0.0006221907
0.00062218421
0.00062218151
0.000622182403
0.000622186403
0.00062219284
0.000622200902
0.000622209628
0.000622217918
0.000622224553
0.000622228334
0.00062222726
0.000622223898
0.000622215382
0.00062220369
0.000622190403
0.000622177418
0.000622166524
0.000622159002
0.000622155364
0.000622155333
0.000622158054
0.000622162452
0.00062216759
0.000622172894
0.000622178207
0.000622183677
0.000622189585
0.000622196189
0.000622203649
0.000622212019
0.000622221285
0.000622231415
0.000622242379
0.000622254155
0.000622266725
0.000622280062
0.000622294129
0.000622308869
0.000622324218
0.0006223401
0.00062235643
0.00062237312
0.000622390077
0.000622407205
0.000622424409
0.000622441593
0.000622458665
0.000622475543
0.000622492142
0.000622508388
0.000622524217
0.000622539565
0.000622554377
0.000622568606
0.000622582199
0.000622595107
0.000622607282
0.000622618663
0.000622611091
0.000622599561
0.000622586872
0.000622573041
0.000622558098
0.000622542087
0.000622525073
0.000622507142
0.000622488405
0.000622468991
0.000622449057
0.000622428774
0.000622408329
0.00062238792
0.000622367749
0.000622348014
0.000622328904
0.000622310597
0.000622293246
0.000622276983
0.000622261916
0.000622248119
0.00062223564
0.000622224505
0.000622214705
0.000622206213
0.000622198984
0.000622192956
0.000622188051
0.000622184189
0.000622181277
0.000622179224
0.000622177936
0.000622177325
0.000622177302
0.000622177783
0.000622178695
0.000622179963
0.000622181524
0.000622183322
0.000622185304
0.000622187423
0.000622189644
0.000622191929
0.00062219425
0.000622196583
0.000622198908
0.000622201206
0.000622203464
0.000622205673
0.000622207822
0.000622209905
0.00062221192
0.000622213862
0.000622215729
0.000622217523
0.00062221924
0.000622220882
0.000622222453
0.000622223951
0.000622225378
0.00062222674
0.000622227495
0.000622227324
0.000622227235
0.000622227221
0.000622227271
0.000622227381
0.000622227543
0.00062222775
0.000622227996
0.000622228279
0.000622228592
0.000622228931
0.000622229296
0.000622229679
0.000622230078
0.000622230495
0.000622230922
0.000622231358
0.000622231805
0.000622232256
0.000622232713
0.000622233171
0.000622233634
0.000622234096
0.00062223456
0.000622235021
0.000622235481
0.000622235937
0.000622236393
0.000622236843
0.000622237288
0.00062223773
0.000622238166
0.000622238595
0.000622239021
0.000622239439
0.00062223985
0.000622240257
0.000622240655
0.000622241048
0.000622241432
0.000622241812
0.000622242183
0.000622242547
0.000622242906
0.000622243257
0.0006222436
0.000622243938
0.000622244271
0.000622244585
0.000622256502
0.00062222006
0.000622225237
0.000622223126
0.000622224838
0.000622229555
0.000622236585
0.000622240522
0.000622229363
0.000622216196
0.000622202615
0.00062219065
0.000622182273
0.000622178856
0.000622180872
0.000622187876
0.000622198712
0.00062221182
0.000622198747
0.000622187472
0.000622180064
0.00062217676
0.000622177376
0.00062218141
0.000622188149
0.000622196719
0.000622206076
0.00062221501
0.000622222178
0.000622225114
0.000622222071
0.000622221207
0.000622211816
0.000622198791
0.00062218389
0.000622169175
0.000622156612
0.00062214763
0.000622142827
0.000622141939
0.00062214406
0.000622148029
0.000622152818
0.000622157797
0.000622162785
0.000622167939
0.00062217357
0.000622179966
0.000622187311
0.000622195673
0.000622205045
0.000622215394
0.000622226694
0.000622238925
0.000622252071
0.000622266103
0.000622280979
0.000622296642
0.000622313015