/*--------------------------------*- C++ -*----------------------------------*\
| =========                 |                                                 |
| \\      /  F ield         | OpenFOAM: The Open Source CFD Toolbox           |
|  \\    /   O peration     | Version:  v2012                                 |
|   \\  /    A nd           | Website:  www.openfoam.com                      |
|    \\/     M anipulation  |                                                 |
\*---------------------------------------------------------------------------*/
FoamFile
{
    version     2.0;
    format      ascii;
    class       volVectorField;
    location    "2.14";
    object      U;
}
// * * * * * * * * * * * * * * * * * * * * * * * * * * * * * * * * * * * * * //

dimensions      [0 1 -1 0 0 0 0];


internalField   nonuniform List<vector> 
28416
(
(0.0999981811 9.07924574e-06 0)
(0.099987517 2.08820003e-05 0)
(0.0999709991 2.37232357e-05 0)
(0.0999532444 1.76310539e-05 0)
(0.0999387352 3.96826092e-06 0)
(0.0999290738 -1.66417978e-05 0)
(0.0999247847 -4.29287466e-05 0)
(0.0999283735 -7.27933896e-05 0)
(0.0999419915 -0.000103207803 0)
(0.0999657549 -0.000129428438 0)
(0.0999979724 -0.000146000604 0)
(0.100035305 -0.000148460382 0)
(0.100073263 -0.000134701167 0)
(0.10010706 -0.000105498323 0)
(0.100132425 -6.41379726e-05 0)
(0.10014687 -1.53466555e-05 0)
(0.10014905 3.52871002e-05 0)
(0.100138404 8.28847971e-05 0)
(0.100116534 0.000123449931 0)
(0.1000861 0.000153943297 0)
(0.100049689 0.000172714357 0)
(0.100009951 0.000179424204 0)
(0.0999694482 0.000174876568 0)
(0.0999304763 0.000160892652 0)
(0.0998950507 0.000140169572 0)
(0.0998648341 0.000116112663 0)
(0.0998408399 9.26861826e-05 0)
(0.0998230393 7.42046225e-05 0)
(0.099810064 6.49148122e-05 0)
(0.0997991404 6.83527032e-05 0)
(0.099786395 8.66184743e-05 0)
(0.0997675287 0.000119744276 0)
(0.0997386149 0.000165399838 0)
(0.0996967906 0.000219196617 0)
(0.0996407255 0.000275601854 0)
(0.0995707588 0.000329198735 0)
(0.0994886391 0.000375898501 0)
(0.0993969437 0.000413718814 0)
(0.0992983692 0.000442890191 0)
(0.0991951169 0.00046530462 0)
(0.0990885484 0.000483569903 0)
(0.0989791709 0.000500059178 0)
(0.0988668822 0.000516290392 0)
(0.0987513267 0.000532776306 0)
(0.0986322056 0.000549264101 0)
(0.0985094481 0.000565146948 0)
(0.0983832348 0.000579826255 0)
(0.0982539267 0.000592900686 0)
(0.0981219715 0.000604179667 0)
(0.0979878356 0.000613597407 0)
(0.0978519796 0.000621115123 0)
(0.097714863 0.000626663968 0)
(0.0975769604 0.000630136148 0)
(0.0974387729 0.000631404272 0)
(0.0973008313 0.000630345078 0)
(0.0971636907 0.000626854129 0)
(0.0970279243 0.000620849964 0)
(0.0968941159 0.000612272346 0)
(0.0967628547 0.00060107946 0)
(0.0966347302 0.000587246304 0)
(0.0965103278 0.00057076434 0)
(0.0963902228 0.0005516417 0)
(0.0962749753 0.000529903584 0)
(0.0961651245 0.000505593021 0)
(0.0960611838 0.000478772351 0)
(0.0959636377 0.000449525499 0)
(0.0958729412 0.00041796054 0)
(0.0957895212 0.000384211512 0)
(0.0957137803 0.000348438211 0)
(0.0956461018 0.000310823258 0)
(0.0955868533 0.000271566167 0)
(0.0955363896 0.000230876919 0)
(0.0954950526 0.000188963756 0)
(0.0954632104 0.000146026242 0)
(0.0954412754 0.000102220832 0)
(0.095429398 5.75501273e-05 0)
(0.095426879 1.20931742e-05 0)
(0.0954338716 -3.31504555e-05 0)
(0.0954514537 -7.81740951e-05 0)
(0.0954796139 -0.000123078682 0)
(0.0955179584 -0.000167635066 0)
(0.0955663525 -0.000211571228 0)
(0.095624656 -0.000254652838 0)
(0.0956925917 -0.000296638949 0)
(0.0957698014 -0.000337271304 0)
(0.0958558716 -0.000376283425 0)
(0.0959503221 -0.000413402581 0)
(0.0960526052 -0.000448350819 0)
(0.0961621169 -0.000480851754 0)
(0.0962782074 -0.000510641856 0)
(0.0964001876 -0.000537483034 0)
(0.0965273354 -0.000561173765 0)
(0.0966589005 -0.00058155685 0)
(0.0967941103 -0.000598523169 0)
(0.0969321772 -0.000612012132 0)
(0.0970723069 -0.000622010134 0)
(0.0972137087 -0.000628548169 0)
(0.0973556058 -0.000631699176 0)
(0.0974972461 -0.000631575135 0)
(0.097637911 -0.000628323742 0)
(0.0977769242 -0.000622124458 0)
(0.0979136582 -0.000613183932 0)
(0.09804754 -0.000601730881 0)
(0.0981780545 -0.000588010643 0)
(0.0983047477 -0.000572279611 0)
(0.0984272278 -0.000554799797 0)
(0.098545165 -0.000535833711 0)
(0.0986582912 -0.000515639733 0)
(0.0987663972 -0.000494468105 0)
(0.0988693306 -0.000472557552 0)
(0.0989669921 -0.00045013255 0)
(0.0990593316 -0.000427401177 0)
(0.0991463437 -0.000404553541 0)
(0.0992280636 -0.000381760748 0)
(0.0993045626 -0.000359174479 0)
(0.099375943 -0.000336927122 0)
(0.0994423344 -0.000315132366 0)
(0.0995038889 -0.00029388617 0)
(0.0995607773 -0.000273267939 0)
(0.0996131844 -0.000253341784 0)
(0.0996613061 -0.000234157831 0)
(0.0997053453 -0.000215753484 0)
(0.0997455087 -0.000198154575 0)
(0.0997820043 -0.000181376246 0)
(0.0998150421 -0.000165423971 0)
(0.0998448336 -0.000150295992 0)
(0.0998715893 -0.00013598575 0)
(0.0998955151 -0.000122483669 0)
(0.099916809 -0.000109778092 0)
(0.0999356593 -9.78553385e-05 0)
(0.0999522435 -8.66991268e-05 0)
(0.0999667278 -7.62896963e-05 0)
(0.0999792677 -6.66030659e-05 0)
(0.099990009 -5.76109039e-05 0)
(0.0999990889 -4.92811429e-05 0)
(0.100006636 -4.15789578e-05 0)
(0.100012772 -3.44674043e-05 0)
(0.100017605 -2.79065556e-05 0)
(0.100021238 -2.18503268e-05 0)
(0.100023773 -1.62460325e-05 0)
(0.100025328 -1.10374069e-05 0)
(0.100026049 -6.17974317e-06 0)
(0.100026155 -1.65985353e-06 0)
(0.100025709 2.42692416e-06 0)
(0.100024541 6.10054293e-06 0)
(0.100022611 9.50387119e-06 0)
(0.100020104 1.27236486e-05 0)
(0.100017208 1.57513626e-05 0)
(0.100014012 1.85595201e-05 0)
(0.100010562 2.11293408e-05 0)
(0.100006897 2.3446439e-05 0)
(0.100003038 2.55040294e-05 0)
(0.0999989972 2.73060807e-05 0)
(0.0999947862 2.88653735e-05 0)
(0.099990417 3.01999964e-05 0)
(0.0999859046 3.13304866e-05 0)
(0.0999812662 3.22778014e-05 0)
(0.0999765206 3.30619312e-05 0)
(0.0999716873 3.37010605e-05 0)
(0.0999667858 3.42111797e-05 0)
(0.099961835 3.46060092e-05 0)
(0.0999568527 3.4897103e-05 0)
(0.0999518554 3.50940462e-05 0)
(0.0999468576 3.52047367e-05 0)
(0.0999418724 3.52357041e-05 0)
(0.0999369109 3.51924441e-05 0)
(0.0999319825 3.50797539e-05 0)
(0.0999270952 3.49020383e-05 0)
(0.0999222553 3.46635574e-05 0)
(0.0999174683 3.43685939e-05 0)
(0.0999127386 3.40215361e-05 0)
(0.0999080701 3.3626885e-05 0)
(0.0999034662 3.31892043e-05 0)
(0.09989893 3.27130379e-05 0)
(0.0998944645 3.220283e-05 0)
(0.0998900726 3.16628083e-05 0)
(0.0998857571 3.10968386e-05 0)
(0.0998815208 3.05083455e-05 0)
(0.0998773662 2.99003214e-05 0)
(0.0998732957 2.92753693e-05 0)
(0.0998693115 2.86357387e-05 0)
(0.0998654157 2.79833457e-05 0)
(0.0998616105 2.73198433e-05 0)
(0.0998578958 2.66464973e-05 0)
(0.0998542801 2.59649419e-05 0)
(0.0998507431 2.52741131e-05 0)
(0.0998473644 2.45830677e-05 0)
(0.0998438949 2.38550148e-05 0)
(0.0998412528 2.32409429e-05 0)
(0.0998365948 2.20587417e-05 0)
(0.0999985348 1.99690187e-05 0)
(0.0999883154 4.6597339e-05 0)
(0.0999704366 5.57550444e-05 0)
(0.0999494579 4.83479839e-05 0)
(0.0999301018 2.71312726e-05 0)
(0.0999155407 -6.26340618e-06 0)
(0.099908521 -5.00449969e-05 0)
(0.0999115425 -0.000101060456 0)
(0.0999264882 -0.000154083797 0)
(0.0999540572 -0.000201065547 0)
(0.0999928025 -0.000232787688 0)
(0.100039003 -0.000241605524 0)
(0.100087285 -0.000223716201 0)
(0.100131663 -0.00018010952 0)
(0.100166693 -0.000116070293 0)
(0.100188357 -3.9597952e-05 0)
(0.100194307 3.9724017e-05 0)
(0.10018395 0.00011371003 0)
(0.100158858 0.000176416149 0)
(0.100122297 0.000223558215 0)
(0.100078065 0.000252879506 0)
(0.100029977 0.000264076082 0)
(0.0999816788 0.00025839811 0)
(0.0999364563 0.000238335449 0)
(0.099897058 0.00020749951 0)
(0.0998655434 0.000170616002 0)
(0.0998430577 0.000133539962 0)
(0.0998295086 0.000103069472 0)
(0.0998232793 8.62849182e-05 0)
(0.0998211643 8.93605623e-05 0)
(0.0998186137 0.000116115161 0)
(0.0998102961 0.000166796302 0)
(0.0997909756 0.00023761938 0)
(0.0997565275 0.000321351586 0)
(0.0997047629 0.000408874723 0)
(0.099635783 0.000491307852 0)
(0.0995517488 0.000562039029 0)
(0.099456139 0.000618012697 0)
(0.0993527423 0.000659875583 0)
(0.0992447223 0.000691013986 0)
(0.0991340438 0.000715934348 0)
(0.0990213888 0.00073865022 0)
(0.0989064861 0.000761645567 0)
(0.0987886375 0.000785652048 0)
(0.0986671988 0.00081009539 0)
(0.0985418592 0.000833828941 0)
(0.0984126911 0.000855767861 0)
(0.0982800475 0.000875210478 0)
(0.098144414 0.000891848217 0)
(0.0980062988 0.00090560243 0)
(0.0978661892 0.000916444717 0)
(0.097724558 0.000924293047 0)
(0.0975818894 0.000928995433 0)
(0.0974386998 0.0009303643 0)
(0.0972955435 0.000928218465 0)
(0.0971530075 0.000922408727 0)
(0.0970117012 0.000912824538 0)
(0.0968722475 0.000899390336 0)
(0.0967352748 0.000882060386 0)
(0.0966014119 0.000860816289 0)
(0.0964712828 0.000835667077 0)
(0.0963455013 0.000806650227 0)
(0.0962246662 0.000773832231 0)
(0.0961093561 0.000737308307 0)
(0.0960001267 0.000697201313 0)
(0.0958975077 0.00065366005 0)
(0.095802002 0.000606857053 0)
(0.0957140846 0.000556986091 0)
(0.0956342025 0.000504259542 0)
(0.095562774 0.000448905721 0)
(0.0955001901 0.000391166174 0)
(0.0954468119 0.00033129256 0)
(0.0954029704 0.000269542229 0)
(0.0953689783 0.000206172815 0)
(0.095345025 0.000141395545 0)
(0.095331186 7.53670916e-05 0)
(0.0953279732 8.39296039e-06 0)
(0.095335529 -5.87995447e-05 0)
(0.0953536329 -0.000125842916 0)
(0.0953824726 -0.000192610856 0)
(0.0954220487 -0.000258754188 0)
(0.0954722251 -0.000323878397 0)
(0.0955328311 -0.000387614978 0)
(0.0956036206 -0.000449578431 0)
(0.0956842587 -0.000509360105 0)
(0.095774333 -0.000566545888 0)
(0.0958733545 -0.000620726071 0)
(0.0959807581 -0.000671501946 0)
(0.0960959094 -0.000718495278 0)
(0.0962181129 -0.000761358729 0)
(0.0963466193 -0.000799785166 0)
(0.0964806333 -0.000833515626 0)
(0.0966193212 -0.000862346061 0)
(0.0967618204 -0.000886132725 0)
(0.0969072502 -0.000904795877 0)
(0.0970547236 -0.000918321513 0)
(0.0972033597 -0.00092676106 0)
(0.0973522967 -0.000930229082 0)
(0.0975007039 -0.000928899209 0)
(0.0976477923 -0.000922998601 0)
(0.0977928249 -0.00091280127 0)
(0.0979351238 -0.000898620575 0)
(0.0980740764 -0.000880801199 0)
(0.0982091395 -0.00085971088 0)
(0.0983398418 -0.000835732183 0)
(0.0984657849 -0.000809254594 0)
(0.0985866422 -0.00078066713 0)
(0.098702157 -0.000750351678 0)
(0.0988121397 -0.000718677187 0)
(0.0989164637 -0.000685994787 0)
(0.0990150603 -0.000652633856 0)
(0.0991079141 -0.000618899062 0)
(0.099195057 -0.000585068302 0)
(0.099276563 -0.000551391454 0)
(0.0993525421 -0.000518089905 0)
(0.0994231357 -0.000485356741 0)
(0.0994885109 -0.000453357463 0)
(0.0995488556 -0.000422231193 0)
(0.0996043742 -0.000392092231 0)
(0.099655283 -0.000363031827 0)
(0.0997018068 -0.000335120127 0)
(0.0997441747 -0.00030840815 0)
(0.099782618 -0.00028292965 0)
(0.0998173671 -0.000258702643 0)
(0.0998486505 -0.000235731025 0)
(0.099876693 -0.000214007595 0)
(0.0999017139 -0.00019351661 0)
(0.0999239252 -0.000174235384 0)
(0.0999435302 -0.000156135322 0)
(0.0999607229 -0.000139182812 0)
(0.0999756877 -0.000123340163 0)
(0.0999885985 -0.000108566386 0)
(0.0999996191 -9.48176686e-05 0)
(0.100008903 -8.20477091e-05 0)
(0.100016593 -7.02080655e-05 0)
(0.100022825 -5.92484597e-05 0)
(0.100027726 -4.91167849e-05 0)
(0.100031416 -3.97582456e-05 0)
(0.100034014 -3.11134943e-05 0)
(0.100035634 -2.31196778e-05 0)
(0.100036385 -1.571597e-05 0)
(0.100036365 -8.86044172e-06 0)
(0.10003563 -2.55299458e-06 0)
(0.100034254 3.09099159e-06 0)
(0.100032339 8.1132242e-06 0)
(0.100029924 1.26339639e-05 0)
(0.10002702 1.67630836e-05 0)
(0.100023685 2.05518141e-05 0)
(0.100019995 2.40201124e-05 0)
(0.100016013 2.71789139e-05 0)
(0.100011787 3.00347094e-05 0)
(0.100007362 3.25929927e-05 0)
(0.100002773 3.48617439e-05 0)
(0.0999980463 3.68529018e-05 0)
(0.0999932033 3.85819005e-05 0)
(0.0999882627 4.00663433e-05 0)
(0.0999832409 4.13248014e-05 0)
(0.0999781539 4.23758905e-05 0)
(0.0999730166 4.32376161e-05 0)
(0.0999678438 4.3926958e-05 0)
(0.0999626496 4.44597216e-05 0)
(0.0999574473 4.48504851e-05 0)
(0.0999522497 4.51124057e-05 0)
(0.0999470681 4.52572013e-05 0)
(0.0999419131 4.52952862e-05 0)
(0.0999367937 4.52359413e-05 0)
(0.0999317184 4.50874907e-05 0)
(0.099926694 4.48574728e-05 0)
(0.0999217268 4.45527954e-05 0)
(0.099916822 4.41798623e-05 0)
(0.0999119843 4.37446683e-05 0)
(0.0999072174 4.32528582e-05 0)
(0.0999025248 4.27097577e-05 0)
(0.0998979096 4.21203841e-05 0)
(0.0998933742 4.14894348e-05 0)
(0.0998889211 4.08213078e-05 0)
(0.0998845522 4.01201224e-05 0)
(0.0998802694 3.93896813e-05 0)
(0.0998760742 3.863342e-05 0)
(0.0998719684 3.78543979e-05 0)
(0.0998679534 3.70553127e-05 0)
(0.0998640305 3.62384959e-05 0)
(0.0998602015 3.54059731e-05 0)
(0.0998564656 3.45592362e-05 0)
(0.0998528312 3.37001315e-05 0)
(0.0998492764 3.28270508e-05 0)
(0.0998458819 3.19499207e-05 0)
(0.0998423841 3.10270492e-05 0)
(0.0998397217 3.02315123e-05 0)
(0.0998349247 2.87848611e-05 0)
(0.0999983685 2.55902087e-05 0)
(0.0999879553 6.04268875e-05 0)
(0.0999705567 7.41469121e-05 0)
(0.0999504853 6.82613915e-05 0)
(0.0999321477 4.625371e-05 0)
(0.0999184611 1.07428664e-05 0)
(0.0999121061 -3.65113874e-05 0)
(0.0999156709 -9.32945262e-05 0)
(0.0999308391 -0.000153821152 0)
(0.099958077 -0.000208810982 0)
(0.0999959132 -0.000247588559 0)
(0.100040799 -0.000261112998 0)
(0.10008764 -0.000244651121 0)
(0.100130745 -0.000198968664 0)
(0.100164878 -0.000129809162 0)
(0.100185911 -4.62331457e-05 0)
(0.10019186 4.16661775e-05 0)
(0.100183156 0.000124467496 0)
(0.100161282 0.000194685605 0)
(0.100128435 0.000247348467 0)
(0.100087761 0.000279971096 0)
(0.100042847 0.00029222533 0)
(0.0999971587 0.000285470133 0)
(0.0999538166 0.000262365444 0)
(0.0999155145 0.000226731361 0)
(0.099884375 0.000183648946 0)
(0.0998617056 0.000139589702 0)
(0.0998476497 0.0001022424 0)
(0.0998408324 7.97601238e-05 0)
(0.0998381936 7.94013979e-05 0)
(0.0998352266 0.000105874664 0)
(0.0998266869 0.000159903039 0)
(0.0998075311 0.000237554815 0)
(0.0997738074 0.000330746074 0)
(0.099723344 0.000428938408 0)
(0.0996560723 0.000521600053 0)
(0.0995738512 0.000600681506 0)
(0.0994798247 0.000662294722 0)
(0.099377516 0.000707042654 0)
(0.099269955 0.000738958836 0)
(0.0991591138 0.00076356363 0)
(0.0990457817 0.000785854166 0)
(0.0989298319 0.000808966949 0)
(0.0988106911 0.000833849987 0)
(0.0986877894 0.000859792616 0)
(0.0985608374 0.000885343191 0)
(0.0984298943 0.000909120508 0)
(0.0982952883 0.00093023494 0)
(0.0981574867 0.000948309448 0)
(0.0980169933 0.000963272057 0)
(0.0978743039 0.000975121492 0)
(0.0977299078 0.000983788378 0)
(0.0975843095 0.000989110387 0)
(0.0974380467 0.000990875002 0)
(0.0972916964 0.000988873751 0)
(0.0971458691 0.000982935779 0)
(0.0970012 0.000972936715 0)
(0.0968583393 0.000958793724 0)
(0.0967179445 0.000940458325 0)
(0.0965806744 0.000917912448 0)
(0.0964471834 0.000891167721 0)
(0.0963181152 0.000860265786 0)
(0.0961940974 0.000825278071 0)
(0.0960757347 0.000786304727 0)
(0.0959636043 0.000743473323 0)
(0.0958582511 0.000696937928 0)
(0.0957601858 0.000646878606 0)
(0.0956698857 0.000593500692 0)
(0.0955877975 0.000537032909 0)
(0.095514341 0.000477723729 0)
(0.0954499123 0.000415836688 0)
(0.0953948841 0.00035164456 0)
(0.0953496043 0.000285427473 0)
(0.0953143882 0.000217468612 0)
(0.0952895334 0.000148048586 0)
(0.0952752815 7.75217549e-05 0)
(0.0952715326 6.28595642e-06 0)
(0.0952784666 -6.552097e-05 0)
(0.0952964878 -0.000137490198 0)
(0.095325606 -0.000209242827 0)
(0.0953657667 -0.000280429172 0)
(0.0954168676 -0.000350647269 0)
(0.0954787546 -0.000419470712 0)
(0.0955511885 -0.000486461069 0)
(0.0956338387 -0.000551165451 0)
(0.0957262944 -0.000613122138 0)
(0.0958280656 -0.000671868994 0)
(0.0959385813 -0.000726951372 0)
(0.0960571919 -0.000777932186 0)
(0.096183176 -0.000824404536 0)
(0.0963157466 -0.000866005107 0)
(0.09645406 -0.000902426504 0)
(0.0965972256 -0.000933427234 0)
(0.0967443181 -0.000958838618 0)
(0.0968943914 -0.000978568533 0)
(0.0970464927 -0.000992602328 0)
(0.0971996773 -0.00100100145 0)
(0.0973530229 -0.0010039002 0)
(0.0975056433 -0.00100150068 0)
(0.0976567007 -0.000994066342 0)
(0.0978054158 -0.000981914083 0)
(0.0979510768 -0.000965405312 0)
(0.0980930455 -0.000944936366 0)
(0.0982307619 -0.000920928627 0)
(0.0983637462 -0.000893818743 0)
(0.098491599 -0.000864049314 0)
(0.0986140002 -0.00083206029 0)
(0.0987307058 -0.000798281316 0)
(0.0988415441 -0.000763125171 0)
(0.0989464101 -0.000726982341 0)
(0.0990452602 -0.000690216757 0)
(0.099138106 -0.000653162667 0)
(0.0992250078 -0.000616122587 0)
(0.0993060681 -0.000579366188 0)
(0.0993814257 -0.000543130113 0)
(0.0994512493 -0.000507618546 0)
(0.099515732 -0.000473004382 0)
(0.0995750861 -0.000439430892 0)
(0.0996295382 -0.000407013725 0)
(0.0996793245 -0.000375843077 0)
(0.0997246878 -0.00034598596 0)
(0.099765873 -0.00031748843 0)
(0.0998031254 -0.000290377686 0)
(0.0998366875 -0.000264664083 0)
(0.0998667986 -0.000240343326 0)
(0.0998936931 -0.000217399212 0)
(0.0999175991 -0.000195806495 0)
(0.0999387375 -0.000175533458 0)
(0.0999573187 -0.000156543775 0)
(0.0999735419 -0.000138797477 0)
(0.0999875931 -0.000122251284 0)
(0.0999996461 -0.000106858687 0)
(0.100009862 -9.25701032e-05 0)
(0.100018393 -7.93333343e-05 0)
(0.100025378 -6.70942689e-05 0)
(0.10003095 -5.57976472e-05 0)
(0.100035234 -4.53878397e-05 0)
(0.100038349 -3.58100853e-05 0)
(0.100040405 -2.70128986e-05 0)
(0.100041506 -1.89502277e-05 0)
(0.100041747 -1.1582968e-05 0)
(0.100041202 -4.87313995e-06 0)
(0.100039909 1.23988816e-06 0)
(0.100037981 6.86664954e-06 0)
(0.100035518 1.19964177e-05 0)
(0.100032558 1.66403817e-05 0)
(0.100029207 2.08392585e-05 0)
(0.10002555 2.46276017e-05 0)
(0.100021628 2.80304329e-05 0)
(0.100017473 3.10713678e-05 0)
(0.100013116 3.37741894e-05 0)
(0.100008581 3.61608276e-05 0)
(0.100003887 3.82527551e-05 0)
(0.0999990549 4.00716123e-05 0)
(0.0999941022 4.16381479e-05 0)
(0.0999890481 4.2971798e-05 0)
(0.0999839108 4.40913418e-05 0)
(0.0999787085 4.50150042e-05 0)
(0.0999734589 4.57601128e-05 0)
(0.0999681787 4.63428095e-05 0)
(0.0999628844 4.67777548e-05 0)
(0.0999575904 4.707797e-05 0)
(0.09995231 4.72550725e-05 0)
(0.0999470547 4.73194794e-05 0)
(0.0999418346 4.72805451e-05 0)
(0.0999366585 4.71467228e-05 0)
(0.0999315339 4.69257391e-05 0)
(0.0999264669 4.66247525e-05 0)
(0.0999214628 4.6250484e-05 0)
(0.0999165258 4.58093087e-05 0)
(0.0999116595 4.53073043e-05 0)
(0.0999068671 4.47502615e-05 0)
(0.0999021511 4.41436689e-05 0)
(0.0998975141 4.34926894e-05 0)
(0.0998929582 4.28021267e-05 0)
(0.0998884857 4.20764372e-05 0)
(0.0998840987 4.13197588e-05 0)
(0.0998797992 4.05358855e-05 0)
(0.0998755889 3.97282231e-05 0)
(0.0998714694 3.88997755e-05 0)
(0.0998674421 3.80531607e-05 0)
(0.099863508 3.71906059e-05 0)
(0.0998596688 3.63140024e-05 0)
(0.0998559234 3.54246714e-05 0)
(0.0998522794 3.45241596e-05 0)
(0.099848715 3.36107757e-05 0)
(0.0998453087 3.26930823e-05 0)
(0.0998418064 3.17326666e-05 0)
(0.0998391325 3.08924315e-05 0)
(0.0998344214 2.94063117e-05 0)
(0.0999984129 3.29042423e-05 0)
(0.0999876757 7.83837455e-05 0)
(0.0999690999 9.7036426e-05 0)
(0.0999471458 9.03438058e-05 0)
(0.0999268304 6.26545422e-05 0)
(0.0999120044 1.71848035e-05 0)
(0.0999051279 -4.41887195e-05 0)
(0.0999085812 -0.000118024181 0)
(0.099924924 -0.000196847498 0)
(0.0999549421 -0.000268877907 0)
(0.0999970773 -0.000320376012 0)
(0.100047464 -0.00033959238 0)
(0.100100457 -0.000320253513 0)
(0.100149683 -0.000263137672 0)
(0.100189221 -0.000175457502 0)
(0.100214778 -6.86912999e-05 0)
(0.100223849 4.42310867e-05 0)
(0.100215668 0.000151027569 0)
(0.100191811 0.000241718909 0)
(0.100155616 0.000309766923 0)
(0.100111011 0.000352003291 0)
(0.10006205 0.000368023618 0)
(0.100012708 0.000359560641 0)
(0.0999666577 0.00033001708 0)
(0.0999270557 0.000284265292 0)
(0.0998962995 0.000228759516 0)
(0.0998757287 0.000171717973 0)
(0.0998652796 0.000122942908 0)
(0.0998632245 9.2901094e-05 0)
(0.099866161 9.09863867e-05 0)
(0.0998692855 0.000123331158 0)
(0.0998669282 0.000190904529 0)
(0.099853424 0.00028867777 0)
(0.099824202 0.000406312474 0)
(0.0997766964 0.000530351578 0)
(0.0997107524 0.000647365597 0)
(0.0996284179 0.000747101982 0)
(0.0995331992 0.000824611074 0)
(0.0994290304 0.000880657906 0)
(0.0993192926 0.000920375969 0)
(0.0992061855 0.000950802495 0)
(0.0990905899 0.000978324647 0)
(0.0989723621 0.00100697152 0)
(0.0988508497 0.00103798366 0)
(0.0987253877 0.00107047499 0)
(0.098595607 0.00110259565 0)
(0.0984615158 0.00113256869 0)
(0.0983234184 0.00115923554 0)
(0.0981817772 0.00118209239 0)
(0.0980371018 0.0012010319 0)
(0.0978898992 0.00121604575 0)
(0.0977406743 0.00122704547 0)
(0.0975899521 0.00123382746 0)
(0.0974382963 0.00123612492 0)
(0.0972863157 0.0012336759 0)
(0.0971346581 0.00122626616 0)
(0.0969839997 0.00121374082 0)
(0.0968350339 0.00119599841 0)
(0.0966884627 0.001172982 0)
(0.0965449885 0.00114467441 0)
(0.0964053078 0.00111109785 0)
(0.0962701042 0.00107231505 0)
(0.0961400428 0.00102842963 0)
(0.0960157659 0.000979584799 0)
(0.0958978894 0.000925960308 0)
(0.0957870023 0.000867767965 0)
(0.0956836648 0.000805246089 0)
(0.0955884059 0.000738653843 0)
(0.0955017204 0.000668266526 0)
(0.0954240649 0.000594372308 0)
(0.0953558574 0.000517270554 0)
(0.0952974772 0.000437271035 0)
(0.0952492666 0.000354692483 0)
(0.0952115374 0.000269863564 0)
(0.0951845596 0.000183120985 0)
(0.095168554 9.47916031e-05 0)
(0.0951638118 5.23652999e-06 0)
(0.0951705027 -8.49259094e-05 0)
(0.0951886772 -0.000175301709 0)
(0.0952184356 -0.00026544729 0)
(0.0952597923 -0.000354875864 0)
(0.095312697 -0.000443064655 0)
(0.095377025 -0.000529468347 0)
(0.0954525655 -0.000613522278 0)
(0.095539014 -0.000694641484 0)
(0.0956359682 -0.000772230287 0)
(0.0957429268 -0.000845696707 0)
(0.0958592888 -0.000914465987 0)
(0.0959843572 -0.000977993932 0)
(0.0961173457 -0.00103578057 0)
(0.0962573886 -0.00108738329 0)
(0.0964035518 -0.00113242877 0)
(0.0965548461 -0.00117062357 0)
(0.0967102416 -0.00120176275 0)
(0.0968686849 -0.00122573608 0)
(0.0970291154 -0.00124253099 0)
(0.097190483 -0.0012522322 0)
(0.0973517659 -0.00125501809 0)
(0.0975119863 -0.00125115414 0)
(0.0976702246 -0.00124098409 0)
(0.0978256324 -0.00122491914 0)
(0.0979774416 -0.00120342603 0)
(0.0981249714 -0.00117701433 0)
(0.0982676329 -0.00114622355 0)
(0.0984049307 -0.00111161052 0)
(0.0985364625 -0.0010737375 0)
(0.0986619163 -0.00103316135 0)
(0.0987810664 -0.00099042387 0)
(0.0988937676 -0.00094604375 0)
(0.0989999484 -0.000900509898 0)
(0.0990996041 -0.000854276363 0)
(0.099192789 -0.00080775871 0)
(0.0992796082 -0.000761331757 0)
(0.0993602103 -0.000715328485 0)
(0.0994347802 -0.000670040034 0)
(0.0995035315 -0.000625716568 0)
(0.0995667007 -0.000582568838 0)
(0.0996245413 -0.000540770332 0)
(0.0996773184 -0.00050045985 0)
(0.0997253041 -0.000461744329 0)
(0.0997687736 -0.000424701872 0)
(0.0998080022 -0.000389384888 0)
(0.0998432617 -0.000355823278 0)
(0.099874819 -0.000324027633 0)
(0.0999029329 -0.000293992318 0)
(0.0999278522 -0.00026569817 0)
(0.0999498143 -0.000239114514 0)
(0.0999690437 -0.000214200624 0)
(0.0999857534 -0.000190907046 0)
(0.100000145 -0.000169177161 0)
(0.100012411 -0.00014894904 0)
(0.100022732 -0.000130157207 0)
(0.100031277 -0.000112733976 0)
(0.100038207 -9.66103062e-05 0)
(0.100043668 -8.17163815e-05 0)
(0.100047797 -6.7982122e-05 0)
(0.100050722 -5.53377396e-05 0)
(0.100052558 -4.37143321e-05 0)
(0.100053413 -3.30443079e-05 0)
(0.100053389 -2.32611998e-05 0)
(0.100052585 -1.42996126e-05 0)
(0.100051122 -6.10015532e-06 0)
(0.100049141 1.34238078e-06 0)
(0.100046635 8.11865352e-06 0)
(0.10004359 1.42714618e-05 0)
(0.100040104 1.98702447e-05 0)
(0.100036216 2.49626498e-05 0)
(0.100031965 2.95808951e-05 0)
(0.100027415 3.37524575e-05 0)
(0.100022627 3.75000078e-05 0)
(0.100017649 4.08417261e-05 0)
(0.100012521 4.37963471e-05 0)
(0.100007279 4.63847964e-05 0)
(0.100001947 4.86292448e-05 0)
(0.099996546 5.05533446e-05 0)
(0.0999910909 5.21821679e-05 0)
(0.0999855974 5.3540778e-05 0)
(0.0999800794 5.46532133e-05 0)
(0.0999745497 5.55420505e-05 0)
(0.0999690199 5.62281517e-05 0)
(0.0999635006 5.67304582e-05 0)
(0.0999580016 5.70659555e-05 0)
(0.0999525325 5.72499872e-05 0)
(0.0999471023 5.72964818e-05 0)
(0.0999417191 5.72180718e-05 0)
(0.0999363902 5.70262095e-05 0)
(0.0999311224 5.67312843e-05 0)
(0.0999259215 5.63427345e-05 0)
(0.0999207928 5.58691583e-05 0)
(0.0999157409 5.5318422e-05 0)
(0.0999107696 5.46977611e-05 0)
(0.0999058823 5.40138706e-05 0)
(0.0999010816 5.32729785e-05 0)
(0.0998963696 5.24808979e-05 0)
(0.0998917483 5.16430718e-05 0)
(0.099887219 5.07645576e-05 0)
(0.0998827831 4.98499772e-05 0)
(0.0998784414 4.89035105e-05 0)
(0.0998741947 4.79289226e-05 0)
(0.0998700439 4.69295805e-05 0)
(0.0998659895 4.59084575e-05 0)
(0.0998620319 4.48681158e-05 0)
(0.099858172 4.38107709e-05 0)
(0.0998544082 4.27380314e-05 0)
(0.0998507475 4.16518952e-05 0)
(0.0998471665 4.05508118e-05 0)
(0.0998437453 3.94454523e-05 0)
(0.0998402128 3.82931011e-05 0)
(0.0998375227 3.72832988e-05 0)
(0.0998326387 3.55352399e-05 0)
(0.09999839 4.005632e-05 0)
(0.0999876824 9.62382303e-05 0)
(0.0999692735 0.000120949334 0)
(0.0999475364 0.000115865358 0)
(0.0999272898 8.58955318e-05 0)
(0.0999119248 3.46574314e-05 0)
(0.0999047193 -3.57383461e-05 0)
(0.0999087717 -0.000121311493 0)
(0.0999259034 -0.000213572824 0)
(0.099956636 -0.000298976038 0)
(0.0999994639 -0.00036157418 0)
(0.100050574 -0.00038753365 0)
(0.100104416 -0.000369212693 0)
(0.100154718 -0.000307104402 0)
(0.100195636 -0.000209240351 0)
(0.100222632 -8.87592104e-05 0)
(0.100233208 3.90493131e-05 0)
(0.100227095 0.000160004711 0)
(0.100205752 0.000263033263 0)
(0.100171956 0.000340631925 0)
(0.100129387 0.000388948114 0)
(0.100082111 0.000407361538 0)
(0.100034153 0.000397736646 0)
(0.09998922 0.00036378982 0)
(0.0999505115 0.000310861088 0)
(0.0999205128 0.000246100907 0)
(0.099900714 0.000178768593 0)
(0.0998912641 0.000120106306 0)
(0.099890634 8.23096857e-05 0)
(0.0998954326 7.65103037e-05 0)
(0.0999006408 0.000110210945 0)
(0.0999003812 0.000184990247 0)
(0.0998889478 0.000295378521 0)
(0.0998617808 0.000429536212 0)
(0.0998162508 0.000571754706 0)
(0.0997520642 0.000706148866 0)
(0.0996711124 0.000820431826 0)
(0.0995767843 0.000908538065 0)
(0.099472964 0.000971224341 0)
(0.099363047 0.00101454348 0)
(0.0992492839 0.00104692382 0)
(0.0991326109 0.00107608668 0)
(0.0990129206 0.0011069479 0)
(0.098889573 0.00114105463 0)
(0.098761897 0.00117735774 0)
(0.0986295118 0.00121361382 0)
(0.0984924173 0.0012476516 0)
(0.0983509179 0.00127804851 0)
(0.0982054848 0.00130418542 0)
(0.0980566432 0.00132593578 0)
(0.097904921 0.00134330127 0)
(0.0977508486 0.00135618926 0)
(0.0975949813 0.00136436664 0)
(0.0974379182 0.00136752166 0)
(0.0972803078 0.00136534702 0)
(0.0971228424 0.00135759279 0)
(0.0969662459 0.00134408134 0)
(0.0968112625 0.00132470037 0)
(0.096658647 0.00129939188 0)
(0.0965091565 0.00126814581 0)
(0.0963635437 0.00123099839 0)
(0.0962225486 0.00118803189 0)
(0.0960868914 0.00113937295 0)
(0.0959572644 0.00108518894 0)
(0.0958343238 0.00102568335 0)
(0.0957186827 0.000961091403 0)
(0.095610908 0.000891676593 0)
(0.0955115212 0.000817727615 0)
(0.0954210042 0.00073955499 0)
(0.0953398064 0.000657486898 0)
(0.09526835 0.00057186487 0)
(0.0952070311 0.000483039963 0)
(0.0951562198 0.000391371806 0)
(0.0951162529 0.000297229153 0)
(0.0950874257 0.000200992175 0)
(0.0950699987 0.000103076869 0)
(0.0950641863 3.93013619e-06 0)
(0.0950701956 -9.607262e-05 0)
(0.0950882347 -0.000196449547 0)
(0.095118436 -0.000296705286 0)
(0.095160844 -0.0003962994 0)
(0.0952154233 -0.000494649806 0)
(0.095282063 -0.000591137832 0)
(0.0953605655 -0.000685113109 0)
(0.0954506354 -0.000775900231 0)
(0.0955518729 -0.000862808297 0)
(0.0956637705 -0.000945143384 0)
(0.09578571 -0.00102222342 0)
(0.0959169623 -0.00109339544 0)
(0.0960566922 -0.00115805452 0)
(0.0962039666 -0.00121566294 0)
(0.0963577667 -0.00126576745 0)
(0.0965170035 -0.00130801366 0)
(0.0966805366 -0.00134215665 0)
(0.0968471953 -0.00136806767 0)
(0.0970158001 -0.00138573678 0)
(0.097185185 -0.00139527162 0)
(0.0973542184 -0.00139689247 0)
(0.0975218226 -0.00139092397 0)
(0.0976869906 -0.0013777839 0)
(0.0978488006 -0.0013579696 0)
(0.0980064264 -0.00133204294 0)
(0.0981591456 -0.00130061434 0)
(0.098306343 -0.00126432672 0)
(0.0984475126 -0.00122383995 0)
(0.098582255 -0.00117981635 0)
(0.0987102737 -0.00113290765 0)
(0.0988313693 -0.00108374367 0)
(0.0989454311 -0.00103292296 0)
(0.0990524295 -0.000981005336 0)
(0.0991524058 -0.000928506345 0)
(0.0992454638 -0.000875893575 0)
(0.0993317594 -0.000823584579 0)
(0.0994114925 -0.000771946223 0)
(0.0994848978 -0.000721295324 0)
(0.0995522374 -0.000671900321 0)
(0.0996137933 -0.000623983703 0)
(0.0996698608 -0.000577725075 0)
(0.0997207435 -0.00053326459 0)
(0.0997667479 -0.000490706565 0)
(0.0998081795 -0.000450123175 0)
(0.0998453389 -0.000411558055 0)
(0.0998785196 -0.000375029651 0)
(0.0999080054 -0.000340534295 0)
(0.0999340697 -0.000308049165 0)
(0.0999569758 -0.000277535382 0)
(0.0999769768 -0.000248941415 0)
(0.0999943148 -0.000222206586 0)
(0.100009219 -0.000197264126 0)
(0.100021902 -0.000174043228 0)
(0.100032561 -0.000152470126 0)
(0.100041376 -0.000132468617 0)
(0.100048514 -0.000113960577 0)
(0.100054127 -9.686675e-05 0)
(0.100058358 -8.11076802e-05 0)
(0.100061337 -6.66045966e-05 0)
(0.100063189 -5.32801752e-05 0)
(0.100064029 -4.10592937e-05 0)
(0.100063964 -2.98700276e-05 0)
(0.100063097 -1.96450814e-05 0)
(0.100061513 -1.03228936e-05 0)
(0.100059218 -1.84657865e-06 0)
(0.100056286 5.88409289e-06 0)
(0.100052872 1.28349396e-05 0)
(0.100049052 1.9090488e-05 0)
(0.10004487 2.47029999e-05 0)
(0.10004039 2.97177816e-05 0)
(0.100035672 3.41917317e-05 0)
(0.100030748 3.81785283e-05 0)
(0.100025637 4.1723781e-05 0)
(0.100020366 4.48670014e-05 0)
(0.100014963 4.76412223e-05 0)
(0.100009452 5.00727392e-05 0)