/*--------------------------------*- C++ -*----------------------------------*\
| =========                 |                                                 |
| \\      /  F ield         | OpenFOAM: The Open Source CFD Toolbox           |
|  \\    /   O peration     | Version:  v2012                                 |
|   \\  /    A nd           | Website:  www.openfoam.com                      |
|    \\/     M anipulation  |                                                 |
\*---------------------------------------------------------------------------*/
FoamFile
{
    version     2.0;
    format      ascii;
    class       volScalarField;
    location    "2.34";
    object      p;
}
// * * * * * * * * * * * * * * * * * * * * * * * * * * * * * * * * * * * * * //

dimensions      [0 2 -2 0 0 0 0];


internalField   nonuniform List<scalar> 
28416
(
0.000533754954
0.000535305052
0.000538663603
0.000543668016
0.00055009879
0.000557893725
0.000567083251
0.000577688233
0.000589702891
0.000603119054
0.000617934509
0.0006341625
0.000651989986
0.000670962152
0.000690332692
0.000710406724
0.000731135851
0.000752379165
0.000774343419
0.00079751027
0.000821842216
0.000847068302
0.00087305416
0.000899749318
0.000927074402
0.000954921115
0.000983180695
0.00101174678
0.00104051102
0.00106936418
0.00109819792
0.00112690475
0.00115537784
0.00118351099
0.00121115234
0.00123816901
0.00126444344
0.00128984882
0.00131425354
0.00133752899
0.00135955383
0.00138021543
0.00139941067
0.00141704607
0.00143303817
0.0014473133
0.00145980709
0.00147046461
0.00147924082
0.00148610123
0.00149102252
0.00149399295
0.0014950125
0.00149409278
0.00149125677
0.00148653844
0.00147998229
0.00147164276
0.00146158359
0.00144987707
0.00143660317
0.00142184875
0.00140570633
0.00138827295
0.00136964923
0.00134993843
0.00132924533
0.00130767531
0.00128533329
0.00126232285
0.00123874524
0.00121469861
0.00119027725
0.00116557087
0.00114066385
0.00111563424
0.00109055317
0.00106548829
0.0010405101
0.00101567357
0.000990963856
0.00096643166
0.00094210624
0.000918044169
0.000894262196
0.000870762668
0.000847551989
0.000824632992
0.000802002615
0.000779654572
0.000757580394
0.000735769608
0.00071421046
0.000692890767
0.000671798594
0.000650922873
0.000630253998
0.000609784312
0.000589508496
0.000569423864
0.000549530511
0.000529831389
0.000510332252
0.000491041514
0.000471970015
0.000453130736
0.000434538448
0.000416209336
0.000398160621
0.000380410165
0.000362976121
0.00034587663
0.000329129595
0.000312752576
0.000296762971
0.000281178479
0.000266018104
0.000251296064
0.000237018503
0.00022318923
0.000209811615
0.000196888291
0.000184421017
0.000172411008
0.000160859708
0.000149768969
0.000139137536
0.000128961389
0.000119234436
0.000109948938
0.000101095768
9.26646061e-05
8.46441309e-05
7.70223972e-05
6.97876189e-05
6.29274907e-05
5.6425946e-05
5.02582702e-05
4.4387229e-05
3.87651948e-05
3.33514029e-05
2.81803609e-05
2.33260485e-05
1.88175454e-05
1.46276602e-05
1.07234104e-05
7.08654617e-06
3.70604327e-06
5.72302694e-07
-2.32325463e-06
-4.98878792e-06
-7.43247711e-06
-9.66209433e-06
-1.1684813e-05
-1.35075243e-05
-1.51371326e-05
-1.65806199e-05
-1.78449914e-05
-1.8937239e-05
-1.98643196e-05
-2.06331271e-05
-2.12504516e-05
-2.17229513e-05
-2.20571385e-05
-2.22593695e-05
-2.23358449e-05
-2.22926127e-05
-2.21355753e-05
-2.18705004e-05
-2.15030304e-05
-2.10386911e-05
-2.04829034e-05
-1.98409922e-05
-1.91181955e-05
-1.8319672e-05
-1.745051e-05
-1.65157301e-05
-1.55202943e-05
-1.4469111e-05
-1.33670412e-05
-1.22189044e-05
-1.10294957e-05
-9.80358188e-06
-8.54598868e-06
-7.26140318e-06
-5.95521706e-06
-4.63093023e-06
-3.30005354e-06
-1.95122553e-06
-6.75270335e-07
0.000526663373
0.00052780061
0.000530719723
0.000535442953
0.00054171503
0.000549408358
0.000558531975
0.000569101259
0.000581094408
0.000594475766
0.000609213242
0.000625284238
0.000642625991
0.000660381984
0.000679785649
0.000700136672
0.000721435846
0.00074383341
0.000767125412
0.000791160432
0.000816036523
0.000841773569
0.00086827939
0.000895463058
0.000923246324
0.000951540402
0.000980247832
0.00100926831
0.00103849785
0.00106782779
0.00109714513
0.00112633271
0.0011552699
0.00118383316
0.00121188992
0.0012393079
0.0012659608
0.00129172268
0.00131646696
0.00134006933
0.00136241043
0.00138337739
0.00140286494
0.0014207764
0.00143702385
0.0014515285
0.00146422152
0.00147504463
0.00148395067
0.00149090407
0.00149588115
0.00149887032
0.00149987215
0.00149889929
0.00149597623
0.00149113892
0.00148443427
0.00147591951
0.00146566145
0.00145373564
0.0014402254
0.00142522076
0.00140881758
0.0013911165
0.00137222178
0.0013522402
0.00133127997
0.00130944963
0.00128685703
0.0012636084
0.00123980743
0.00121555441
0.00119094548
0.00116607192
0.0011410195
0.00111586848
0.00109069374
0.00106556142
0.0010405214
0.00101561301
0.000990899681
0.000966395943
0.000942144607
0.000918163482
0.000894475676
0.000871091461
0.000848013315
0.000825239806
0.000802764834
0.000780578432
0.000758667928
0.000737018608
0.000715614517
0.000694439367
0.000673477363
0.000652713954
0.000632136536
0.000611735032
0.000591502358
0.000571434766
0.000551532009
0.0005317974
0.000512237724
0.000492863022
0.000473686278
0.000454723027
0.000435990911
0.000417509184
0.000399298242
0.000381379136
0.000363773125
0.000346501303
0.000329584282
0.000313041947
0.000296893276
0.000281156094
0.000265846497
0.000250977375
0.00023655788
0.000222594725
0.000209093057
0.000196056593
0.000183487605
0.00017138689
0.000159753364
0.000148583757
0.000137874832
0.000127622343
0.000117820443
0.000108461681
9.95371969e-05
9.10368339e-05
8.29489062e-05
7.52587757e-05
6.79490423e-05
6.10015002e-05
5.43982453e-05
4.8125462e-05
4.21802015e-05
3.65847419e-05
3.1315824e-05
2.63190864e-05
2.15873511e-05
1.71432473e-05
1.29949207e-05
9.13034651e-06
5.53546708e-06
2.1993857e-06
-8.87487611e-07
-3.73408709e-06
-6.34900238e-06
-8.74079257e-06
-1.09178848e-05
-1.2888342e-05
-1.46598492e-05
-1.62398345e-05
-1.76355511e-05
-1.88540893e-05
-1.99023947e-05
-2.0787293e-05
-2.15155056e-05
-2.20936451e-05
-2.25282053e-05
-2.28255609e-05
-2.29919615e-05
-2.30335294e-05
-2.29562587e-05
-2.2766014e-05
-2.24685344e-05
-2.20694414e-05
-2.15742424e-05
-2.09883393e-05
-2.03170348e-05
-1.95655399e-05
-1.87389796e-05
-1.78424039e-05
-1.68807901e-05
-1.58590528e-05
-1.47820509e-05
-1.36545965e-05
-1.24814605e-05
-1.12673885e-05
-1.00170905e-05
-8.73532091e-06
-7.4266553e-06
-6.09631454e-06
-4.74736951e-06
-3.39068286e-06
-2.01218229e-06
-7.01307161e-07
0.000519249287
0.000520583672
0.000523670754
0.000528478633
0.000534798378
0.000542530803
0.000551688495
0.000562289246
0.000574317683
0.000587746769
0.000602556749
0.00061873304
0.000636269454
0.000655319495
0.000674541755
0.000694998514
0.000716502506
0.000738777286
0.000761993763
0.000786245422
0.000811465808
0.000837563784
0.000864454994
0.000892056938
0.000920284403
0.000949043172
0.000978231603
0.00100774443
0.00103747334
0.00106730702
0.00109713183
0.0011268319
0.00115628808
0.00118537534
0.00121396225
0.00124191724
0.00126910866
0.00129540361
0.0013206696
0.00134477679
0.00136760036
0.00138902252
0.00140893391
0.00142723431
0.00144383291
0.00145864853
0.00147161002
0.0014826569
0.00149173998
0.00149882201
0.00150387818
0.00150689643
0.00150787751
0.00150683491
0.00150379457
0.00149879443
0.00149188388
0.00148312311
0.00147258229
0.00146034067
0.0014464856
0.00143111144
0.00141431851
0.00139621194
0.00137690051
0.00135649549
0.00133510948
0.0013128553
0.0012898449
0.00126618828
0.00124199254
0.00121736096
0.00119239219
0.00116717957
0.00114181054
0.00111636603
0.00109091963
0.00106553697
0.00104027954
0.00101519867
0.000990317756
0.000965690678
0.000941337265
0.000917286816
0.000893554223
0.000870145934
0.000847063377
0.000824303002
0.00080185606
0.000779709611
0.000757847727
0.000736252337
0.000714904131
0.000693783561
0.000672871776
0.000652151489
0.000631607749
0.000611228599
0.000591005587
0.00057093413
0.000551013688
0.000531247791
0.000511643916
0.000492213206
0.000472970087
0.000453931794
0.000435117842
0.000416549452
0.000398248991
0.00038023942
0.000362543779
0.00034518474
0.000328184222
0.000311563047
0.000295340666
0.000279534866
0.000264161446
0.000249233704
0.000234761991
0.000220753915
0.000207214866
0.00019414835
0.000181556111
0.000169438214
0.000157793111
0.000146617894
0.00013590871
0.000125660436
0.000115866427
0.000106518533
9.76072757e-05
8.91220768e-05
8.10516857e-05
7.33855772e-05
6.6113536e-05
5.922371e-05
5.27023502e-05
4.65319962e-05
4.06863549e-05
3.51227186e-05
2.98502916e-05
2.48759742e-05
2.01948962e-05
1.58043331e-05
1.17026893e-05
7.88159002e-06
4.32906472e-06
1.03382229e-06
-2.01433111e-06
-4.82453434e-06
-7.40506311e-06
-9.76380535e-06
-1.19084736e-05
-1.38465933e-05
-1.55855444e-05
-1.71326489e-05
-1.84952085e-05
-1.96804713e-05
-2.06955928e-05
-2.15476074e-05
-2.22434092e-05
-2.27897422e-05
-2.31931881e-05
-2.3460166e-05
-2.35969336e-05
-2.36095955e-05
-2.35041121e-05
-2.32863084e-05
-2.29618793e-05
-2.25364011e-05
-2.20153374e-05
-2.14040486e-05
-2.07078004e-05
-1.99317714e-05
-1.90810583e-05
-1.8160685e-05
-1.71756055e-05
-1.61307115e-05
-1.50308363e-05
-1.38807608e-05
-1.26852167e-05
-1.14489e-05
-1.01764583e-05
-8.87256433e-06
-7.54168815e-06
-6.1889102e-06
-4.81718516e-06
-3.43736275e-06
-2.03641653e-06
-7.06074123e-07
0.000509257528
0.000510470953
0.000513417036
0.000518118994
0.00052438086
0.000532097504
0.000541270665
0.000551909354
0.000563990588
0.000577476164
0.000592326768
0.000608496064
0.000625903289
0.000644328781
0.000664326804
0.000685247442
0.00070715055
0.000730125629
0.000754097237
0.000779010014
0.000804836195
0.000831519899
0.000858991145
0.000887175286
0.000915990823
0.00094534766
0.000975148666
0.00100529179
0.0010356704
0.00106617272
0.00109668143
0.00112707356
0.00115722135
0.00118699521
0.00121626376
0.00124488905
0.00127273284
0.00129965975
0.00132553559
0.00135022832
0.00137361036
0.0013955604
0.00141596474
0.0014347182
0.00145172484
0.0014668986
0.00148016408
0.00149145731
0.0015007265
0.00150793274
0.00151305038
0.00151606735
0.00151698517
0.00151581887
0.00151259665
0.00150735945
0.00150016038
0.0014910639
0.00148014504
0.00146748834
0.0014531868
0.00143734069
0.0014200564
0.00140144516
0.00138162175
0.0013607033
0.00133880797
0.00131605378
0.00129255752
0.00126843363
0.00124379335
0.00121874377
0.00119338703
0.00116781955
0.00114213132
0.0011164053
0.00109071692
0.00106513368
0.00103971323
0.00101450351
0.000989553807
0.000964888101
0.000940539379
0.000916526677
0.000892862713
0.000869552195
0.000846592807
0.000823976347
0.000801689344
0.000779713918
0.00075802886
0.000736610654
0.000715434562
0.000694475773
0.000673710497
0.000653117
0.000632676536
0.000612374117
0.000592199122
0.000572145709
0.000552212996
0.000532405063
0.000512730751
0.000493203293
0.000473839795
0.000454660635
0.000435688782
0.000416949088
0.00039846759
0.000380270833
0.00036238525
0.000344836617
0.000327649588
0.000310847285
0.000294450975
0.000278479779
0.000262950386
0.000247876777
0.000233270041
0.000219138476
0.000205487901
0.000192321933
0.000179642169
0.000167448337
0.000155738441
0.000144508928
0.000133754855
0.000123469939
0.000113646577
0.000104275921
9.53480188e-05
8.68520266e-05
7.87764841e-05
7.11095911e-05
6.38388077e-05
5.69497997e-05
5.04241519e-05
4.42404092e-05
3.83586954e-05
3.28123526e-05
2.75889012e-05
2.26768698e-05
1.80660289e-05
1.37466545e-05
9.71174654e-06
5.95324459e-06
2.46157258e-06
-7.72730575e-07
-3.75872748e-06
-6.50537022e-06
-9.02165339e-06
-1.13165061e-05
-1.33985453e-05
-1.52759499e-05
-1.69564981e-05
-1.84476456e-05
-1.9756596e-05
-2.08903687e-05
-2.1855858e-05
-2.26598555e-05
-2.3309043e-05
-2.38099841e-05
-2.41691188e-05
-2.43927662e-05
-2.4487121e-05
-2.44582504e-05
-2.43120894e-05
-2.40544455e-05
-2.36910001e-05
-2.32273162e-05
-2.26688423e-05
-2.20209192e-05
-2.12887856e-05
-2.04775857e-05
-1.9592375e-05
-1.86381291e-05
-1.76197484e-05
-1.65420666e-05
-1.54098558e-05
-1.42278341e-05
-1.30006699e-05
-1.17329925e-05
-1.04293774e-05
-9.09441577e-06
-7.73247637e-06
-6.3485321e-06
-4.94530642e-06
-3.53343673e-06
-2.09822118e-06
-7.30830988e-07
0.000497215485
0.000498449028
0.00050142619
0.000506168366
0.000512476402
0.000520244278
0.000529476333
0.000540185153
0.000552350264
0.000565935436
0.000580904836
0.000597218198
0.000614818566
0.000633628621
0.000653717666
0.000674973391
0.000697355487
0.000720843017
0.000745354288
0.000770842316
0.000797274555
0.000824600699
0.000852750485
0.000881643751
0.000911194771
0.000941312167
0.000971898591
0.0010028511
0.00103406131
0.00106541537
0.00109679436
0.00112807462
0.00115912733
0.00118981553
0.00121999466
0.00124952554
0.00127826894
0.00130608206
0.00133282292
0.0013583524
0.00138253572
0.00140524426
0.00142635721
0.00144576255
0.00146335794
0.00147905145
0.00149276246
0.00150442257
0.00151397652
0.00152138284
0.00152661439
0.00152965864
0.00153051772
0.0015292083
0.00152576129
0.00152022131
0.001512646
0.00150310523
0.00149168008
0.00147846178
0.00146355047
0.00144705395
0.00142908634
0.0014097667
0.00138921771
0.00136756427
0.00134493219
0.00132144696
0.00129723242
0.00127240965
0.00124709579
0.00122140307
0.00119543793
0.00116930032
0.00114308312
0.00111687165
0.00109074317
0.00106476642
0.00103900169
0.00101350092
0.000988302907
0.000963445993
0.000938954007
0.000914845286
0.000891129346
0.000867807442
0.000844873292
0.000822313957
0.000800110617
0.000778239525
0.000756673203
0.000735381682
0.000714333789
0.000693498477
0.000672846136
0.000652349813
0.000631986326
0.000611737168
0.000591589217
0.000571535196
0.000551573857
0.000531709927
0.000511953817
0.000492321115
0.000472831926
0.00045351009
0.000434382328
0.000415477366
0.000396825086
0.000378455709
0.00036039906
0.000342683937
0.000325337571
0.00030838518
0.00029184962
0.000275751125
0.000260107086
0.000244931918
0.000230237016
0.000216030841
0.000202319134
0.000189105163
0.000176389943
0.000164172442
0.000152449769
0.000141217363
0.000130469155
0.000120197703
0.00011039429
0.000101049037
9.2151043e-05
8.36884954e-05
7.56486472e-05
6.80175787e-05
6.07800137e-05
5.3921289e-05
4.74351723e-05
4.1335444e-05
3.55894991e-05
3.01452269e-05
2.50078878e-05
2.0176603e-05
1.56450494e-05
1.14047318e-05
7.44728474e-06
3.76433045e-06
3.46742293e-07
-2.81503931e-06
-5.73055045e-06
-8.40893814e-06
-1.08587902e-05
-1.30883187e-05
-1.51056108e-05
-1.69186676e-05
-1.8535328e-05
-1.99632458e-05
-2.12098893e-05
-2.22825472e-05
-2.31883145e-05
-2.39340912e-05
-2.45266044e-05
-2.49724294e-05
-2.5277994e-05
-2.54495807e-05
-2.54933232e-05
-2.54152136e-05
-2.52211055e-05
-2.49167228e-05
-2.45076645e-05
-2.39994129e-05
-2.33973393e-05
-2.27067128e-05
-2.19327077e-05
-2.10804092e-05
-2.01548195e-05
-1.91608644e-05
-1.81033962e-05
-1.69872001e-05
-1.58169987e-05
-1.45974566e-05
-1.3333183e-05
-1.20287412e-05
-1.06886319e-05
-9.31736278e-06
-7.9192134e-06
-6.49905376e-06
-5.05958306e-06
-3.6114719e-06
-2.14129743e-06
-7.4157844e-07
0.000483093801
0.000484336558
0.00048732744
0.000492092935
0.000498442657
0.000506276099
0.000515599252
0.0005264249
0.000538732781
0.000552486981
0.000567653153
0.000584197653
0.000602082216
0.00062128013
0.000641763929
0.000663448798
0.0006862969
0.000710259444
0.000735318172
0.000761427358
0.000788528237
0.000816559431
0.00084545118
0.00087512558
0.000905497639
0.000936475377
0.000967959861
0.000999845669
0.00103202112
0.00106436809
0.00109676169
0.00112907025
0.00116115629
0.00119288118
0.0012241084
0.00125468707
0.00128446393
0.00131328981
0.00134101569
0.00136749422
0.00139258245
0.00141614379
0.00143804967
0.00145818068
0.00147642754
0.00149269189
0.0015068873
0.00151894036
0.0015287917
0.00153639689
0.00154172709
0.00154476939
0.00154552686
0.00154401842
0.00154027842
0.00153435607
0.00152631473
0.00151623092
0.00150419324
0.00149030115
0.00147466365
0.00145739776
0.00143862716
0.00141848054
0.00139709015
0.00137459017
0.00135111528
0.00132679921
0.00130177343
0.00127616597
0.00125010045
0.00122369508
0.00119706186
0.0011703057
0.00114352377
0.0011168048
0.00109022862
0.00106386605
0.00103777861
0.00101201786
0.0009866261
0.000961632324
0.000937063738
0.000912934452
0.000889249025
0.000866003955
0.000843187743
0.000820781393
0.00079875935
0.000777090571
0.000755739789
0.000734668933
0.000713838667
0.000693209982
0.000672745789
0.000652412417
0.00063218098
0.000612028478
0.000591938649
0.00057190251
0.00055191853
0.000531992509
0.000512137151
0.000492371384
0.000472719463
0.000453209977
0.000433874752
0.000414747752
0.000395864025
0.000377258722
0.000358966215
0.00034101936
0.00032344889
0.000306282929
0.00028954664
0.000273261988
0.000257447591
0.000242118664
0.000227287067
0.00021296142
0.000199147334
0.000185847662
0.000173062763
0.000160790753
0.000149027753
0.000137768127
0.000127004712
0.000116729025
0.000106931452
9.76014026e-05
8.87274837e-05
8.02977417e-05
7.23000606e-05
6.47227119e-05
5.75539958e-05
5.07754751e-05
4.43414564e-05
3.82469814e-05
3.25176715e-05
2.71304663e-05
2.20669503e-05
1.73148885e-05
1.2864781e-05
8.70731461e-06
4.83305356e-06
1.2326835e-06
-2.10323568e-06
-5.18420988e-06
-8.01961541e-06
-1.06186135e-05
-1.29901282e-05
-1.51428259e-05
-1.70850736e-05
-1.88249246e-05
-2.03701506e-05
-2.17283041e-05
-2.29067636e-05
-2.39127316e-05
-2.4753232e-05
-2.54351214e-05
-2.59651011e-05
-2.63497189e-05
-2.65953668e-05
-2.67082892e-05
-2.66945829e-05
-2.65602075e-05
-2.63109877e-05
-2.59526204e-05
-2.5490678e-05
-2.49306153e-05
-2.42777729e-05
-2.35373824e-05
-2.27145742e-05
-2.18143813e-05
-2.08417468e-05
-1.98015319e-05
-1.86985211e-05
-1.75374292e-05
-1.63229077e-05
-1.50595492e-05
-1.37518906e-05
-1.2404422e-05
-1.10215692e-05
-9.60776394e-06
-8.16720372e-06
-6.70468735e-06
-5.22275199e-06
-3.73193791e-06
-2.21732292e-06
-7.70824391e-07
0.00046687031
0.000468125014
0.000471144101
0.000475957124
0.000482374736
0.000490296815
0.000499730417
0.000510690149
0.000523158009
0.000537101485
0.000552490887
0.000569299149
0.000587497655
0.000607050553
0.000627921694
0.000650076591
0.000673469791
0.000698065968
0.000723810189
0.000750652095
0.00077853812
0.000807404605
0.00083717927
0.000867782162
0.000899126283
0.000931117963
0.000963656884
0.000996636129
0.00102994217
0.00106345485
0.00109704755
0.00113058728
0.00116393453
0.00119694028
0.00122944156
0.00126128712
0.0012923231
0.00132238899
0.00135132526
0.00137897493
0.00140518492
0.00142980825
0.00145270593
0.00147374838
0.00149281651
0.00150980295
0.00152461327
0.00153716736
0.00154740064
0.00155526502
0.00156072961
0.00156378099
0.00156442336
0.00156267829
0.00155858434
0.00155219636
0.00154358467
0.00153283395
0.00152004203
0.00150531842
0.00148878281
0.00147056345
0.0014507954
0.0014296189
0.00140717763
0.00138361706
0.00135908289
0.0013337195
0.00130766855
0.00128106759
0.00125404875
0.0012267377
0.00119925263
0.00117170358
0.00114419184
0.0011168096
0.00108963954
0.00106275446
0.0010362168
0.00101007837
0.00098438067
0.000959156917
0.000934427696
0.000910205831
0.000886492544
0.000863279287
0.000840548558
0.000818274218
0.000796422533
0.000774953469
0.000753822133
0.00073298044
0.000712378961
0.000691968856
0.000671703822
0.000651541932
0.000631447324
0.000611391557
0.000591354645
0.00057132567
0.000551302961
0.000531293853
0.000511314085
0.000491386869
0.000471541711
0.000451813101
0.000432239129
0.000412860092
0.000393717199
0.000374851378
0.000356302241
0.00033810723
0.000320300943
0.000302914624
0.000285975821
0.000269508192
0.000253531423
0.000238061263
0.000223109654
0.000208684931
0.000194792094
0.000181433122
0.000168607285
0.000156311459
0.000144540422
0.000133287129
0.000122542939
0.000112297825
0.00010254056
9.32588954e-05
8.44397283e-05
7.60691794e-05
6.81324564e-05
6.0613528e-05
5.34974333e-05
4.67829543e-05
4.04644705e-05
3.44987699e-05
2.88774714e-05
2.35920197e-05
1.8631527e-05
1.39840604e-05
9.63876776e-06
5.58563425e-06
1.81471234e-06
-1.68380639e-06
-4.91960223e-06
-7.90222745e-06
-1.06410246e-05
-1.31450986e-05
-1.54233306e-05
-1.7484377e-05
-1.93366583e-05
-2.0988339e-05
-2.24473418e-05
-2.37213358e-05
-2.48177535e-05
-2.57438107e-05
-2.65065247e-05
-2.71127236e-05
-2.75690568e-05
-2.78820072e-05
-2.80578959e-05
-2.8102893e-05
-2.8023018e-05
-2.78241474e-05
-2.75120188e-05
-2.70922373e-05
-2.65702816e-05
-2.59515131e-05
-2.52411831e-05
-2.44444396e-05
-2.35663359e-05
-2.26118366e-05
-2.15858216e-05
-2.04930926e-05
-1.93383763e-05
-1.81263282e-05
-1.68615379e-05
-1.55485324e-05
-1.41917787e-05
-1.27956932e-05
-1.13646248e-05
-9.90292471e-06
-8.41471178e-06
-6.90470192e-06
-5.37542513e-06
-3.83745802e-06
-2.27706459e-06
-7.87283597e-07
0.000448525659
0.000449796858
0.000452853959
0.000457729004
0.000464233175
0.000472267896
0.000481842807
0.000492975324
0.000505650133
0.000519837384
0.000535510941
0.00055264786
0.000571221274
0.000591202579
0.000612553111
0.000635237209
0.000659219904
0.000684458122
0.000710909593
0.000738522793
0.000767239179
0.000796995494
0.00082772118
0.000859336535
0.000891753551
0.000924877061
0.000958604922
0.000992827803
0.0010274288
0.00106228286
0.00109725608
0.00113220564
0.00116698039
0.00120142521
0.00123539471
0.00126871119
0.00130120421
0.00133270554
0.00136304402
0.00139204964
0.00141955658
0.00144540535
0.00146944483
0.00149153388
0.00151154264
0.00152935379
0.00154486401
0.00155798552
0.00156864756
0.00157679757
0.00158240201
0.00158544682
0.00158593751
0.00158389886
0.00157937447
0.00157242601
0.00156313216
0.0015515874
0.0015379006
0.00152219334
0.00150459822
0.00148525697
0.00146431856
0.00144193726
0.00141827069
0.00139347789
0.00136771749
0.00134114594
0.00131391593
0.001286175
0.00125806434
0.00122971775
0.00120126078
0.00117280996
0.00114447215
0.00111634399
0.00108851146
0.00106104969
0.00103402316
0.00100748505
0.000981477128
0.000956029344
0.000931160631
0.000906879608
0.000883182716
0.00086005548
0.000837473327
0.000815401822
0.000793797654
0.000772610071
0.000751782533
0.000731254682
0.000710964581
0.000690851106
0.00067085638
0.0006509281
0.000631021651
0.000611101832
0.00059114412
0.000571135404
0.000551074128
0.000530969916
0.000510842683
0.000490721375
0.000470642399
0.0004506479
0.000430783979
0.000411098946
0.000391641708
0.000372460332
0.000353600827
0.000335106164
0.000317015547
0.000299363884
0.000282181481
0.000265493913
0.000249322026
0.000233682077
0.000218585968
0.000204041541
0.000190052932
0.000176620956
0.000163743488
0.000151415832
0.000139631082
0.000128380456
0.000117653619
0.000107438974
9.77239369e-05
8.8495156e-05
7.97387316e-05
7.14405245e-05
6.35867435e-05
5.61647105e-05
4.91612485e-05
4.25236446e-05
3.62791902e-05
3.04059399e-05
2.48863475e-05
1.9705336e-05
1.48512902e-05
1.03121898e-05
6.07639412e-06
2.13297225e-06
-1.5286288e-06
-4.91866289e-06
-8.04714881e-06
-1.09239143e-05
-1.35585835e-05
-1.59605128e-05
-1.81387101e-05
-2.01018228e-05
-2.18581933e-05
-2.34159334e-05
-2.47829293e-05
-2.59668302e-05
-2.69750615e-05
-2.78148384e-05
-2.84931732e-05
-2.90168792e-05
-2.939258e-05
-2.96267239e-05
-2.97255878e-05
-2.96952904e-05
-2.95417966e-05
-2.9270927e-05
-2.88883653e-05
-2.83996655e-05
-2.78102575e-05
-2.71254524e-05
-2.63504478e-05
-2.54903329e-05
-2.4550093e-05
-2.35346175e-05
-2.24487049e-05
-2.12970703e-05
-2.00843528e-05
-1.88151208e-05
-1.74938783e-05
-1.61250698e-05
-1.47130824e-05
-1.32622545e-05
-1.17768589e-05
-1.02611736e-05
-8.71924405e-06
-7.15572533e-06
-5.57302974e-06
-3.98162742e-06
-2.36663599e-06
-8.2029366e-07
0.000428033671
0.000429324851
0.000432427672
0.000437376488
0.000443981813
0.000452145507
0.000461879393
0.000473203721
0.000486105981
0.000500559354
0.000516541389
0.000534033344
0.000553013178
0.000573454412
0.000595332601
0.00061861157
0.000643252491
0.000669215978
0.000696458995
0.000724933867
0.000754585282
0.000785348919
0.000817151396
0.000849911416
0.000883540408
0.000917942295
0.000953013045
0.000988640373
0.00102470347
0.00106107294
0.00109761096
0.00113417155
0.00117060028
0.00120673021
0.00124237995
0.00127738135
0.00131155667
0.00134471917
0.00137668382
0.00140726623
0.00143628544
0.00146356674
0.00148894409
0.00151226188
0.00153337654
0.00155215806
0.00156849186
0.00158228061
0.00159344596
0.00160192999
0.00160769612
0.00161072956
0.00161103743
0.00160864843
0.00160361226
0.00159599873
0.00158589661
0.00157341214
0.00155866738
0.00154179834
0.00152295292
0.00150228878
0.00147997112
0.00145617049
0.00143106056
0.00140481602
0.00137761054
0.00134961494
0.00132099542
0.00129191201
0.00126251713
0.00123295446
0.00120335793
0.00117385097
0.00114454604
0.00111554422
0.00108693501
0.0010587962
0.00103119324
0.00100417931
0.000977796655
0.000952077464
0.000927034972
0.000902673553
0.000878986165
0.000855952367
0.000833539569
0.00081170369
0.000790390111
0.000769535242
0.000749068439
0.000728914348
0.000708995641
0.000689235996
0.000669563169
0.000649911974
0.00063022698
0.000610464713
0.000590595248
0.000570603082
0.000550487229
0.000530260624
0.000509948872
0.000489588506
0.000469224886
0.000448909944
0.00042869987
0.000408652915
0.000388827396
0.00036927996
0.000350064159
0.000331229353
0.000312819929
0.000294874785
0.000277427089
0.000260504251
0.000244128037
0.000228314855
0.00021307611
0.000198418636
0.000184345163
0.000170854809
0.000157943553
0.0001456047
0.000133829306
0.000122606569
0.000111924154
0.000101768484
9.21249909e-05
8.29783278e-05
7.43125404e-05
6.61111064e-05
5.83565715e-05
5.10305307e-05
4.41208449e-05
3.7627549e-05
3.15133888e-05
2.57673891e-05
2.03762032e-05
1.5325566e-05
1.06024194e-05
6.19429527e-06
2.08919682e-06
-1.7243815e-06
-5.25752141e-06
-8.52090483e-06
-1.15248512e-05
-1.42793239e-05
-1.67939303e-05
-1.9077968e-05
-2.11404796e-05
-2.29902746e-05
-2.46358815e-05
-2.6085515e-05
-2.73470872e-05
-2.84282372e-05
-2.93363574e-05
-3.00786083e-05
-3.06619348e-05
-3.109308e-05
-3.13785959e-05
-3.15248558e-05
-3.15380594e-05
-3.14242445e-05
-3.1189292e-05
-3.08389339e-05
-3.03787596e-05
-2.98142232e-05
-2.91506516e-05
-2.83932531e-05
-2.75471251e-05
-2.66172622e-05
-2.56085638e-05
-2.45258399e-05
-2.33738163e-05
-2.21571392e-05
-2.08803791e-05
-1.9548035e-05
-1.81645381e-05
-1.67342567e-05
-1.52614986e-05
-1.37505202e-05
-1.22055112e-05
-1.06306656e-05
-9.02994791e-06
-7.40792931e-06
-5.76698553e-06
-4.11756819e-06
-2.44557564e-06
-8.44057435e-07
0.000405362555
0.000406676346
0.000409830817
0.000414862671
0.000421581505
0.000429889722
0.000439801778
0.000451341186
0.000464498505
0.00047925008
0.000495576909
0.000513464036
0.000532893968
0.000553844618
0.000576288382
0.000600196723
0.000625537613
0.000652275753
0.00068037184
0.000709776334
0.00074043452
0.000772283742
0.00080525267
0.00083926115
0.000874220147
0.000910032044
0.00094659083
0.000983781916
0.00102148152
0.00105955586
0.00109786027
0.00113623956
0.00117452921
0.00121255176
0.00125012039
0.00128705618
0.00132315634
0.00135822453
0.00139205786
0.00142445322
0.00145521197
0.00148414158
0.00151105837
0.00153578977
0.00155817617
0.0015780728
0.00159535186
0.00160990469
0.00162164391
0.00163050507
0.00163644782
0.00163945644
0.00163953993
0.00163673161
0.00163108846
0.00162269003
0.00161163706
0.00159804978
0.00158206593
0.00156383861
0.00154353386
0.00152132824
0.00149740627
0.00147195791
0.00144517602
0.00141725392
0.00138838304
0.00135875079
0.00132853858
0.00129792009
0.00126705989
0.00123611228
0.0012052203
0.00117451517
0.00114411574
0.00111412825
0.00108464613
0.00105574986
0.00102750693
0.00099997237
0.000973185467
0.000947179557
0.000921963258
0.000897539617
0.000873896563
0.000851006252
0.000828827156
0.000807304221
0.000786369646
0.000765944583
0.000745941333
0.000726266126
0.000706822512
0.000687515137
0.000668253684
0.000648956732
0.000629555278
0.000609995586
0.000590241226
0.000570274129
0.000550094595
0.000529720361
0.000509184829
0.000488534657
0.000467826932
0.000447126178
0.000426501379
0.00040602319
0.000385761476
0.000365783229
0.000346150926
0.000326921314
0.000308144613
0.000289864055
0.000272115755
0.00025492883
0.000238325685
0.00022232247
0.000206929618
0.000192152425
0.000177991675
0.000164444239
0.000151503661
0.000139160698
0.000127403815
0.00011621964
0.000105593364
9.55091069e-05
8.59502373e-05
7.68996325e-05
6.83399287e-05
6.02538953e-05
5.26244174e-05
4.54314402e-05
3.86540901e-05
3.22868002e-05
2.63086159e-05
2.07019602e-05
1.54516518e-05
1.05431294e-05
5.96260862e-06
1.6969654e-06
-2.26635761e-06
-5.93933598e-06
-9.33340651e-06
-1.2459539e-05
-1.53283054e-05
-1.79499209e-05
-2.03342581e-05
-2.24908378e-05
-2.44288004e-05
-2.61569107e-05
-2.76835968e-05
-2.90170013e-05
-3.01650088e-05
-3.11352479e-05
-3.19350939e-05
-3.25716805e-05
-3.30519142e-05
-3.33824878e-05
-3.35698908e-05
-3.36204231e-05
-3.35402044e-05
-3.33351875e-05
-3.30111661e-05
-3.2573786e-05
-3.20285537e-05
-3.13808441e-05
-3.06359072e-05
-2.97988757e-05
-2.88747693e-05
-2.78685007e-05
-2.67848811e-05
-2.56286262e-05
-2.44043626e-05
-2.31166353e-05
-2.17699129e-05
-2.03685953e-05
-1.89170177e-05
-1.74194568e-05
-1.58801324e-05
-1.43032168e-05
-1.26928185e-05
-1.10530537e-05
-9.38781073e-06
-7.70159318e-06
-5.99668384e-06
-4.28344284e-06
-2.54707795e-06
-8.79884195e-07
0.000380476256
0.000381814743
0.000385025581
0.000390147929
0.000396990169
0.000405454979
0.000415559362
0.00042733016
0.000440761165
0.000455832009
0.00047252736
0.000490836593
0.000510746912
0.000532240279
0.000555294455
0.000579884692
0.000605983596
0.000633558535
0.000662571346
0.000692978476
0.000724728131
0.000757759826
0.000792003469
0.000827379405
0.000863798934
0.000901164412
0.000939368803
0.000978294982
0.00101781494
0.00105778926
0.00109806684
0.00113848359
0.00117886227
0.00121902073
0.00125876635
0.00129788812
0.00133617819
0.00137341585
0.00140937956
0.00144384749
0.00147659939
0.00150742113
0.00153610784
0.00156246638
0.00158631768
0.001607499
0.00162586649
0.00164129782
0.00165369473
0.00166298501
0.00166912385
0.00167209448
0.00167190819
0.00166860392
0.00166224735
0.00165292967
0.00164076587
0.00162589284
0.00160846692
0.00158866142
0.00156666383
0.00154267293
0.00151689585
0.00148954508
0.00146083561