/*--------------------------------*- C++ -*----------------------------------*\
| =========                 |                                                 |
| \\      /  F ield         | OpenFOAM: The Open Source CFD Toolbox           |
|  \\    /   O peration     | Version:  v2012                                 |
|   \\  /    A nd           | Website:  www.openfoam.com                      |
|    \\/     M anipulation  |                                                 |
\*---------------------------------------------------------------------------*/
FoamFile
{
    version     2.0;
    format      ascii;
    class       surfaceVectorField;
    location    "2.34";
    object      Uf;
}
// * * * * * * * * * * * * * * * * * * * * * * * * * * * * * * * * * * * * * //

dimensions      [0 1 -1 0 0 0 0];


internalField   nonuniform List<vector> 
56481
(
(0.0999890248 3.15394913e-05 0)
(0.0999979439 2.60732164e-05 0)
(0.0999610438 6.26775234e-05 0)
(0.0999812384 7.57214418e-05 0)
(0.0999182763 9.08850694e-05 0)
(0.0999472841 0.000121989398 0)
(0.0998635954 0.000113160259 0)
(0.0998976643 0.000160831426 0)
(0.0998004432 0.00012705145 0)
(0.0998366725 0.000188647508 0)
(0.0997326051 0.000131299576 0)
(0.0997686412 0.000202998809 0)
(0.0996638563 0.000126092015 0)
(0.0996975187 0.000203357192 0)
(0.0995976105 0.000112605504 0)
(0.0996270472 0.000191005131 0)
(0.0995368165 9.226346e-05 0)
(0.099560677 0.000167931047 0)
(0.0994840659 6.64900605e-05 0)
(0.0995014639 0.000135945641 0)
(0.0994416608 3.71331001e-05 0)
(0.0994520828 9.69286664e-05 0)
(0.0994115711 6.83039627e-06 0)
(0.0994147452 5.37481201e-05 0)
(0.0993935352 -2.12076301e-05 0)
(0.0993899926 1.00898423e-05 0)
(0.0993800703 -4.14948651e-05 0)
(0.0993756959 -2.34512513e-05 0)
(0.0993702694 -4.77230099e-05 0)
(0.0993691243 -4.28547049e-05 0)
(0.0993623782 -3.71855358e-05 0)
(0.0993671862 -4.27580285e-05 0)
(0.0993542782 -1.13655006e-05 0)
(0.0993653937 -2.22867367e-05 0)
(0.0993428958 2.48672538e-05 0)
(0.0993595702 1.67750535e-05 0)
(0.0993187455 6.63685064e-05 0)
(0.0993451756 6.87750288e-05 0)
(0.0992824932 0.000109405065 0)
(0.0993179796 0.00012474445 0)
(0.0992350726 0.000150046383 0)
(0.0992770055 0.000179825227 0)
(0.0991785859 0.000184260311 0)
(0.0992240415 0.000228286059 0)
(0.0991158233 0.000208988301 0)
(0.0991619131 0.000265516726 0)
(0.0990498028 0.000222550339 0)
(0.0990938288 0.000288810154 0)
(0.0989835313 0.000224527519 0)
(0.0990233032 0.000297125135 0)
(0.0989198421 0.000215615028 0)
(0.0989538616 0.000290801389 0)
(0.0988612655 0.000197508358 0)
(0.0988887185 0.000271388609 0)
(0.0988099189 0.000172780825 0)
(0.0988306389 0.000241503087 0)
(0.0987673568 0.000144767977 0)
(0.0987818367 0.000204747331 0)
(0.0987343545 0.000117429446 0)
(0.0987437822 0.000165676761 0)
(0.0987106631 9.50920123e-05 0)
(0.098716937 0.000129665788 0)
(0.0986948423 8.19933253e-05 0)
(0.0987004979 0.000102496039 0)
(0.0986843433 8.16297998e-05 0)
(0.0986922784 8.95793822e-05 0)
(0.0986759121 9.59963263e-05 0)
(0.0986888772 9.48868097e-05 0)
(0.0986656569 0.000124997453 0)
(0.0986860297 0.000119828751 0)
(0.0986499941 0.000166280183 0)
(0.0986792139 0.000162803065 0)
(0.0986263437 0.000215582218 0)
(0.0986645186 0.000219284773 0)
(0.0985934801 0.000267594241 0)
(0.0986394099 0.000282654671 0)
(0.098551647 0.000317123794 0)
(0.0986031592 0.000345646853 0)
(0.0985023216 0.000360217766 0)
(0.0985568087 0.000402005195 0)
(0.0984477015 0.000394889382 0)
(0.0985027175 0.000447808694 0)
(0.0983900835 0.000421235637 0)
(0.0984438272 0.000482047281 0)
(0.0983313252 0.000440957703 0)
(0.0983828757 0.000506311861 0)
(0.0982725343 0.000456511504 0)
(0.0983218025 0.000523786736 0)
(0.0982140374 0.000470227547 0)
(0.0982615011 0.000537971841 0)
(0.0981555754 0.000483700767 0)
(0.0982019308 0.000551612539 0)
(0.0980966043 0.000497592801 0)
(0.0981424662 0.000566161927 0)
(0.0980365723 0.000511799297 0)
(0.0980823065 0.000581826768 0)
(0.0979750893 0.000525805703 0)
(0.0980207884 0.000598008032 0)
(0.0979119725 0.00053903388 0)
(0.0979575269 0.000613842562 0)
(0.0978472018 0.000551051971 0)
(0.0978924019 0.000628603553 0)
(0.0977808452 0.000561623162 0)
(0.0978254611 0.000641860112 0)
(0.0977129971 0.000570646577 0)
(0.0977568161 0.000653435662 0)
(0.0976437505 0.000578067505 0)
(0.0976865788 0.00066327559 0)
(0.097573199 0.000583813045 0)
(0.0976148461 0.000671326704 0)
(0.0975014524 0.000587771102 0)
(0.0975417158 0.000677478694 0)
(0.0974286518 0.0005898015 0)
(0.0974673109 0.000681564802 0)
(0.0973549786 0.000589758133 0)
(0.0973917957 0.000683392 0)
(0.0972806552 0.000587506594 0)
(0.0973153817 0.000682771771 0)
(0.0972059421 0.000582932168 0)
(0.0972383247 0.000679537489 0)
(0.0971311347 0.00057594056 0)
(0.0971609196 0.000673548605 0)
(0.0970565598 0.000566455894 0)
(0.0970834955 0.000664688415 0)
(0.0969825725 0.000554419175 0)
(0.0970064123 0.000652861574 0)
(0.0969095532 0.000539788137 0)
(0.0969300573 0.000637993234 0)
(0.0968379041 0.000522538047 0)
(0.0968548422 0.000620030099 0)
(0.0967680445 0.000502662936 0)
(0.0967811989 0.000598942167 0)
(0.0967004071 0.000480177109 0)
(0.0967095758 0.000574724215 0)
(0.0966354333 0.000455116991 0)
(0.0966404328 0.000547396853 0)
(0.0965735707 0.00042754311 0)
(0.0965742386 0.000517007185 0)
(0.096515272 0.000397541705 0)
(0.0965114676 0.000483629044 0)
(0.0964609945 0.000365225275 0)
(0.0964525988 0.000447362615 0)
(0.0964112015 0.000330731321 0)
(0.0963981146 0.000408333187 0)
(0.096366363 0.000294219125 0)
(0.0963485007 0.000366688582 0)
(0.0963269555 0.000255863657 0)
(0.0963042442 0.00032259522 0)
(0.0962934646 0.000215848448 0)
(0.0962658329 0.0002762272 0)
(0.0962664106 0.00017434514 0)
(0.0962337507 0.000227735212 0)
(0.0962462487 0.000131486773 0)
(0.0962084646 0.000177355389 0)
(0.0962332763 8.73845562e-05 0)
(0.0961903928 0.000125358599 0)
(0.0962276366 4.22408473e-05 0)
(0.0961798693 7.19704408e-05 0)
(0.0962291181 -3.33081357e-06 0)
(0.0961771573 1.76934853e-05 0)
(0.0962394275 -4.89245713e-05 0)
(0.0961827507 -3.7682957e-05 0)
(0.0962586668 -9.47107776e-05 0)
(0.0961972982 -9.3315608e-05 0)
(0.0962869005 -0.000140681176 0)
(0.0962210545 -0.000149344069 0)
(0.0963241276 -0.000186571486 0)
(0.0962540151 -0.000205443811 0)
(0.0963703438 -0.000232099572 0)
(0.0962962456 -0.000261285361 0)
(0.0964255007 -0.000276986299 0)
(0.096347777 -0.000316540102 0)
(0.0964894702 -0.000320932744 0)
(0.0964085288 -0.00037083539 0)
(0.0965620408 -0.000363626595 0)
(0.0964783359 -0.000423774462 0)
(0.0966429161 -0.000404747166 0)
(0.0965569534 -0.000474950516 0)
(0.0967317143 -0.000443965312 0)
(0.0966440429 -0.000523948261 0)
(0.096827972 -0.000480947183 0)
(0.0967391735 -0.00057034912 0)
(0.0969311512 -0.000515363167 0)
(0.0968418296 -0.000613741355 0)
(0.0970406479 -0.000546899692 0)
(0.0969514176 -0.000653731833 0)
(0.0971557993 -0.000575272085 0)
(0.0970672728 -0.000689958451 0)
(0.0972758917 -0.000600236313 0)
(0.0971886674 -0.000722102331 0)
(0.0974001678 -0.000621597713 0)
(0.0973148192 -0.000749898226 0)
(0.0975278348 -0.000639216094 0)
(0.0974449011 -0.000773142241 0)
(0.0976580746 -0.000653007548 0)
(0.0975780516 -0.000791696682 0)
(0.0977900546 -0.000662943944 0)
(0.0977133873 -0.000805492284 0)
(0.097922941 -0.000669051054 0)
(0.0978500175 -0.000814528257 0)
(0.0980559115 -0.00067140586 0)
(0.0979870583 -0.000818870521 0)
(0.0981881684 -0.00067013316 0)
(0.0981236473 -0.000818648331 0)
(0.0983189504 -0.000665401438 0)
(0.0982589575 -0.000814049455 0)
(0.0984475429 -0.000657417894 0)
(0.0983922089 -0.000805314034 0)
(0.0985732865 -0.000646422659 0)
(0.0985226793 -0.000792727316 0)
(0.0986955835 -0.000632682388 0)
(0.0986497118 -0.000776611545 0)
(0.0988139034 -0.00061648345 0)
(0.0987727214 -0.000757317326 0)
(0.0989277851 -0.000598125053 0)
(0.0988911986 -0.000735214824 0)
(0.0990368387 -0.000577912544 0)
(0.0990047114 -0.000710685144 0)
(0.0991407451 -0.000556151161 0)
(0.099112905 -0.00068411217 0)
(0.099239254 -0.000533140391 0)
(0.0992155006 -0.000655875111 0)
(0.0993321809 -0.00050916909 0)
(0.0993122919 -0.000626341919 0)
(0.0994194022 -0.000484511234 0)
(0.0994031404 -0.000595863572 0)
(0.0995008484 -0.000459422019 0)
(0.0994879697 -0.000564768987 0)
(0.0995764948 -0.00043413376 0)
(0.0995667582 -0.000533359709 0)
(0.0996463446 -0.000408848677 0)
(0.0996395297 -0.00050190321 0)
(0.0997104756 -0.000383735898 0)
(0.0997063572 -0.000470618478 0)
(0.0997690521 -0.000358941694 0)
(0.0997673786 -0.000439688556 0)
(0.0998222638 -0.000334598559 0)
(0.0998227862 -0.000409285937 0)
(0.0998703202 -0.000310824594 0)
(0.0998728003 -0.000379567566 0)
(0.0999134458 -0.000287721434 0)
(0.0999176568 -0.000350669074 0)
(0.0999518758 -0.000265373689 0)
(0.0999576039 -0.000322703362 0)
(0.0999858514 -0.00024384918 0)
(0.0999928982 -0.00029576079 0)
(0.100015615 -0.000223198676 0)
(0.100023801 -0.000269908828 0)
(0.100041406 -0.000203453805 0)
(0.100050575 -0.000245191791 0)
(0.100063467 -0.000184628021 0)
(0.100073481 -0.000221648929 0)
(0.10008205 -0.000166722204 0)
(0.100092781 -0.000199298949 0)
(0.100097403 -0.000149729027 0)
(0.100108733 -0.000178139299 0)
(0.100109774 -0.000133635218 0)
(0.100121592 -0.000158155504 0)
(0.1001194 -0.000118422925 0)
(0.100131606 -0.000139324576 0)
(0.100126515 -0.000104070674 0)
(0.100139016 -0.000121617117 0)
(0.10013134 -9.05537862e-05 0)
(0.100144053 -0.000104998725 0)
(0.100134087 -7.78435146e-05 0)
(0.100146939 -8.94304912e-05 0)
(0.100134955 -6.59036973e-05 0)
(0.100147888 -7.48673777e-05 0)
(0.100134129 -5.46868141e-05 0)
(0.100147106 -6.12560335e-05 0)
(0.100131796 -4.41334165e-05 0)
(0.10014479 -4.85404097e-05 0)
(0.100128158 -3.4180528e-05 0)
(0.100141137 -3.66717188e-05 0)
(0.100123463 -2.47895139e-05 0)
(0.10013634 -2.56269669e-05 0)
(0.100118026 -1.60044758e-05 0)
(0.10013058 -1.54386946e-05 0)
(0.100112205 -8.00551509e-06 0)
(0.100124014 -6.22263987e-06 0)
(0.100106135 -1.03400167e-06 0)
(0.100116829 2.04928667e-06 0)
(0.100099158 4.86220604e-06 0)
(0.100109116 9.79878815e-06 0)
(0.100090984 9.89398399e-06 0)
(0.100100711 1.62258283e-05 0)
(0.100081898 1.4301878e-05 0)
(0.100091459 2.17652449e-05 0)
(0.100072068 1.82289065e-05 0)
(0.100081441 2.66406097e-05 0)
(0.100061629 2.17536563e-05 0)
(0.10007082 3.09603303e-05 0)
(0.1000507 2.49317068e-05 0)
(0.100059718 3.47959472e-05 0)
(0.100039388 2.78059048e-05 0)
(0.100048237 3.82047372e-05 0)
(0.10002779 3.04075087e-05 0)
(0.100036466 4.12305365e-05 0)
(0.100015992 3.27587967e-05 0)
(0.100024483 4.39093111e-05 0)
(0.100004069 3.48743047e-05 0)
(0.100012353 4.62713965e-05 0)
(0.0999920831 3.6762142e-05 0)
(0.10000014 4.83402292e-05 0)
(0.0999800837 3.84271783e-05 0)
(0.0999878976 5.01336701e-05 0)
(0.0999681109 3.98743053e-05 0)
(0.09997567 5.16668524e-05 0)
(0.0999561957 4.11102751e-05 0)
(0.0999634931 5.2954034e-05 0)
(0.099944363 4.21442767e-05 0)
(0.0999513966 5.40093941e-05 0)
(0.0999326333 4.29878026e-05 0)
(0.0999394053 5.48473988e-05 0)
(0.0999210246 4.36541333e-05 0)
(0.0999275403 5.54829718e-05 0)
(0.0999095533 4.41576285e-05 0)
(0.09991582 5.593144e-05 0)
(0.0998982348 4.45129921e-05 0)
(0.0999042605 5.62082567e-05 0)
(0.0998870839 4.47346203e-05 0)
(0.0998928766 5.63286224e-05 0)
(0.0998761147 4.48360794e-05 0)
(0.0998816819 5.63071263e-05 0)
(0.0998653406 4.48297245e-05 0)
(0.0998706891 5.61574568e-05 0)
(0.0998547742 4.47264772e-05 0)
(0.0998599097 5.58921841e-05 0)
(0.0998444269 4.45357672e-05 0)
(0.0998493542 5.55226311e-05 0)
(0.0998343089 4.42656089e-05 0)
(0.0998390321 5.50588476e-05 0)
(0.0998244289 4.39227646e-05 0)
(0.0998289515 5.45096701e-05 0)
(0.0998147942 4.3512961e-05 0)
(0.0998191195 5.38828425e-05 0)
(0.0998054108 4.30411345e-05 0)
(0.099809542 5.31851783e-05 0)
(0.0997962834 4.25116785e-05 0)
(0.0998002235 5.24227409e-05 0)
(0.0997874153 4.19286671e-05 0)
(0.0997911676 5.16010206e-05 0)
(0.0997788089 4.12960332e-05 0)
(0.0997823769 5.0725091e-05 0)
(0.0997704658 4.0617688e-05 0)
(0.0997738533 4.97997321e-05 0)
(0.0997623872 3.98975789e-05 0)
(0.0997655979 4.88295138e-05 0)
(0.0997545735 3.91396935e-05 0)
(0.0997576115 4.78188389e-05 0)
(0.0997470252 3.83480188e-05 0)
(0.0997498946 4.67719514e-05 0)
(0.0997397427 3.75264697e-05 0)
(0.0997424473 4.56929146e-05 0)
(0.0997327263 3.66788018e-05 0)
(0.0997352698 4.45855728e-05 0)
(0.0997259766 3.5808523e-05 0)
(0.0997283624 4.34535055e-05 0)
(0.0997194942 3.49188266e-05 0)
(0.0997217253 4.22999794e-05 0)
(0.0997132798 3.40125454e-05 0)
(0.0997153588 4.11279104e-05 0)
(0.0997073344 3.30921413e-05 0)
(0.0997092632 3.99398195e-05 0)
(0.0997016594 3.21596232e-05 0)
(0.0997034399 3.87378278e-05 0)
(0.0996962562 3.12167571e-05 0)
(0.0996978877 3.75234263e-05 0)
(0.0996911273 3.0263817e-05 0)
(0.099692615 3.62980612e-05 0)
(0.0996862759 2.93044818e-05 0)
(0.0996875995 3.50596002e-05 0)
(0.0996817067 2.83215113e-05 0)
(0.0996829285 3.38165029e-05 0)
(0.0996774337 2.73836425e-05 0)
(0.09967832 3.25167566e-05 0)
(0.0996734532 2.61365168e-05 0)
(0.0996748244 3.13685542e-05 0)
(0.0996691 2.92932236e-05 0)
(0.0999924351 6.47234788e-05 0)
(0.0999981311 3.47842881e-05 0)
(0.0999671096 0.00012690268 0)
(0.0999823819 0.000104884203 0)
(0.0999255643 0.000181937953 0)
(0.0999493659 0.000169829403 0)
(0.0998703698 0.000225091604 0)
(0.0999000441 0.000224388732 0)
(0.0998049956 0.000252667726 0)
(0.0998385789 0.000263926884 0)
(0.0997336299 0.000262866213 0)
(0.0997694538 0.000285177501 0)
(0.099660625 0.000256202954 0)
(0.0996968002 0.000287423433 0)
(0.0995899746 0.000234732895 0)
(0.0996245343 0.000272360053 0)
(0.0995251541 0.000200810176 0)
(0.0995562924 0.000242572828 0)
(0.0994691931 0.000156733393 0)
(0.0994953096 0.000200385627 0)
(0.0994245876 0.000105569185 0)
(0.0994443796 0.000148292577 0)
(0.0993927252 5.20935685e-05 0)
(0.0994056211 9.04381113e-05 0)
(0.099372244 3.16464573e-06 0)
(0.0993797285 3.36742785e-05 0)
(0.0993645293 -3.22005833e-05 0)
(0.0993662231 -1.45676297e-05 0)
(0.0993658092 -4.60273036e-05 0)
(0.099362689 -4.43285775e-05 0)
(0.0993699934 -3.47013985e-05 0)
(0.0993646431 -4.75761915e-05 0)
(0.0993703045 8.07615871e-07 0)
(0.099366919 -2.26449934e-05 0)
(0.099362528 5.47899928e-05 0)
(0.0993640702 2.57298594e-05 0)
(0.0993443075 0.00011918115 0)
(0.0993515717 8.97561622e-05 0)
(0.099311919 0.000186225943 0)
(0.0993263757 0.000162040344 0)
(0.0992655259 0.000248638039 0)
(0.0992871611 0.000233247577 0)
(0.0992070231 0.000300089327 0)
(0.0992348262 0.00029565284 0)
(0.099139506 0.000336161749 0)
(0.0991719971 0.000343263745 0)
(0.0990668535 0.000354641855 0)
(0.0991021669 0.000372470547 0)
(0.0989931433 0.000355204082 0)
(0.0990291984 0.000382003584 0)
(0.0989222397 0.000339035688 0)
(0.0989569926 0.00037244794 0)
(0.0988575815 0.000308600019 0)
(0.0988891828 0.000345843464 0)
(0.0988020361 0.000267529668 0)
(0.0988289344 0.000305464493 0)
(0.0987577294 0.000220616991 0)
(0.0987788005 0.000255767108 0)
(0.098725813 0.000173774134 0)
(0.0987405218 0.000202429051 0)
(0.0987061898 0.000133744384 0)
(0.0987147504 0.000152262131 0)
(0.0986973009 0.000107390966 0)
(0.0987007703 0.000112731793 0)
(0.0986961045 0.000100557713 0)
(0.0986963324 9.09570134e-05 0)
(0.098698326 0.0001167045 0)
(0.0986977343 9.23287808e-05 0)
(0.0986989484 0.000155839717 0)
(0.0987002204 0.000119111995 0)
(0.0986930852 0.000214218532 0)
(0.0986987166 0.000169554645 0)
(0.0986769242 0.00028495759 0)
(0.0986887536 0.0002378944 0)
(0.0986484452 0.000359495451 0)
(0.0986673107 0.000315448679 0)
(0.0986077081 0.000429529311 0)
(0.0986333431 0.000392556182 0)
(0.0985566288 0.000488857194 0)
(0.0985878323 0.000460823808 0)
(0.0984983069 0.000534543233 0)
(0.0985333379 0.000514967303 0)
(0.0984361229 0.000567063996 0)
(0.0984731903 0.00055365309 0)
(0.0983728957 0.000589472709 0)
(0.0984105815 0.000579118822 0)
(0.0983103517 0.000605969125 0)
(0.0983478412 0.000595807119 0)
(0.0982490186 0.00062044044 0)
(0.0982861015 0.000608597911 0)
(0.0981884903 0.000635470127 0)
(0.0982253836 0.000621311733 0)
(0.0981278856 0.000652045258 0)
(0.0981649845 0.000635949092 0)
(0.0980662923 0.000669874034 0)
(0.0981039559 0.000652752454 0)
(0.0980030509 0.000688009344 0)
(0.0980414846 0.00067083139 0)
(0.0979378386 0.000705441737 0)
(0.0979770768 0.000688935607 0)
(0.0978706015 0.000721448119 0)
(0.0979105555 0.000706027984 0)
(0.0978014304 0.000735660596 0)
(0.0978419515 0.000721511673 0)
(0.0977304537 0.000747951957 0)
(0.0977713798 0.000735166428 0)
(0.0976577865 0.000758273035 0)
(0.0976989597 0.000746953032 0)
(0.0975835293 0.000766538308 0)
(0.0976247924 0.000756834888 0)
(0.0975077928 0.000772589075 0)
(0.0975489782 0.000764690415 0)
(0.0974307224 0.000776213029 0)
(0.0974716432 0.000770312606 0)
(0.097352512 0.000777182815 0)
(0.09739296 0.000773452404 0)
(0.0972734062 0.000775286305 0)
(0.0973131544 0.00077386335 0)
(0.0971936945 0.000770339977 0)
(0.0972325021 0.00077132672 0)
(0.0971137053 0.000762189858 0)
(0.0971513227 0.000765657336 0)
(0.0970338006 0.000750708189 0)
(0.0970699728 0.000756699866 0)
(0.0969543722 0.000735791283 0)
(0.0969888422 0.000744324531 0)
(0.0968758387 0.000717359984 0)
(0.0969083501 0.000728425821 0)
(0.0967986414 0.000695361593 0)
(0.0968289413 0.000708923864 0)
(0.0967232413 0.000669771772 0)
(0.0967510821 0.000685766577 0)
(0.0966501141 0.000640595586 0)
(0.0966752555 0.000658931242 0)
(0.0965797474 0.00060786759 0)
(0.0966019567 0.000628425232 0)
(0.0965126367 0.000571651099 0)
(0.0965316891 0.000594286108 0)
(0.0964492834 0.000532036847 0)
(0.0964649607 0.00055658132 0)
(0.0963901918 0.000489141286 0)
(0.0964022825 0.000515407433 0)
(0.0963358673 0.000443104422 0)
(0.0963441663 0.000470888694 0)
(0.0962868136 0.000394087332 0)
(0.0962911237 0.000423174663 0)
(0.0962435299 0.00034226908 0)
(0.0962436637 0.000372437118 0)
(0.0962065 0.00028784307 0)
(0.0962022905 0.000318867682 0)
(0.0961761547 0.000231006767 0)
(0.0961674928 0.000262678272 0)
(0.0961529223 0.000171952245 0)
(0.0961397324 0.000204107864 0)
(0.0961372494 0.000110900964 0)
(0.0961194608 0.000143406182 0)
(0.0961296365 4.81844135e-05 0)
(0.0961071253 8.07367166e-05 0)
(0.0961309344 -1.56968121e-05 0)
(0.096103148 1.61989262e-05 0)
(0.0961407971 -8.0305839e-05 0)
(0.096107919 -4.90399898e-05 0)
(0.0961598587 -0.000145442955 0)
(0.096121819 -0.000115265288 0)
(0.0961882739 -0.000210870286 0)
(0.0961451711 -0.000182064576 0)
(0.0962262103 -0.00027620253 0)
(0.0961781636 -0.000249128164 0)
(0.0962737418 -0.00034103105 0)
(0.0962209025 -0.000316018649 0)
(0.0963308439 -0.000404933487 0)
(0.0962734378 -0.000382293967 0)
(0.0963974113 -0.00046745263 0)
(0.0963357268 -0.000447488757 0)
(0.0964732501 -0.000528107105 0)
(0.0964076299 -0.000511104012 0)
(0.0965580698 -0.000586405021 0)
(0.0964889139 -0.000572621594 0)
(0.0966514825 -0.000641852581 0)
(0.0965792457 -0.000631514448 0)
(0.0967530064 -0.000693964469 0)
(0.0966781902 -0.00068725543 0)
(0.0968620699 -0.000742276331 0)
(0.096785214 -0.000739329602 0)
(0.0969780183 -0.000786356946 0)
(0.0968996908 -0.000787248094 0)
(0.0971001214 -0.000825819745 0)
(0.097020907 -0.000830562064 0)
(0.0972275829 -0.000860333376 0)
(0.0971480707 -0.000868876176 0)
(0.0973595502 -0.000889630772 0)
(0.0972803226 -0.000901860594 0)
(0.0974951267 -0.00091351643 0)
(0.0974167478 -0.000929260629 0)
(0.0976333854 -0.000931871506 0)
(0.0975563911 -0.000950903602 0)
(0.097773384 -0.000944656454 0)
(0.0976982729 -0.000966702759 0)
(0.0979141811 -0.000951911146 0)
(0.0978414065 -0.000976658281 0)
(0.0980548524 -0.00095375245 0)
(0.0979848157 -0.000980855572 0)
(0.0981945055 -0.000950369506 0)
(0.0981275518 -0.00097946103 0)
(0.0983322946 -0.000942017045 0)
(0.0982687092 -0.000972715594 0)
(0.0984674316 -0.000929007147 0)
(0.0984074396 -0.000960926416 0)
(0.0985991969 -0.000911699861 0)
(0.0985429633 -0.000944457052 0)
(0.0987269461 -0.000890493132 0)
(0.098674578 -0.000923716639 0)
(0.0988501153 -0.000865812397 0)
(0.0988016659 -0.00089914851 0)
(0.098968224 -0.000838100311 0)
(0.098923697 -0.000871218746 0)
(0.0990808755 -0.000807806859 0)
(0.0990402306 -0.000840405068 0)
(0.0991877558 -0.000775380211 0)
(0.0991509145 -0.000807186421 0)
(0.0992886302 -0.000741258456 0)
(0.0992554823 -0.00077203353 0)
(0.0993833391 -0.000705862398 0)
(0.0993537486 -0.000735400596 0)
(0.0994717918 -0.000669589246 0)
(0.0994456035 -0.000697718166 0)
(0.0995539601 -0.000632806853 0)
(0.0995310057 -0.00065938707 0)
(0.0996298719 -0.000595848019 0)
(0.0996099757 -0.000620773248 0)
(0.0996996064 -0.000559002126 0)
(0.0996825888 -0.000582203554 0)
(0.0997632989 -0.000522512965 0)
(0.0997489722 -0.000543961324 0)
(0.0998211358 -0.000486592032 0)
(0.0998093026 -0.000506288592 0)
(0.0998733365 -0.000451429536 0)
(0.099863798 -0.00046939586 0)
(0.0999201432 -0.000417193315 0)
(0.0999127055 -0.000433466264 0)
(0.0999618147 -0.000384025953 0)
(0.0999562911 -0.000398654378 0)
(0.0999986207 -0.000352044025 0)
(0.0999948335 -0.000365085964 0)
(0.100030838 -0.000321338627 0)
(0.100028619 -0.000332859151 0)
(0.100058746 -0.000291975821 0)
(0.100057939 -0.000302046217 0)
(0.100082632 -0.000263996313 0)
(0.100083084 -0.000272696277 0)
(0.100102771 -0.000237417582 0)
(0.100104344 -0.000244839713 0)
(0.100119434 -0.000212239277 0)
(0.100121999 -0.000218486601 0)
(0.100132885 -0.000188447818 0)
(0.100136325 -0.00019362849 0)
(0.100143382 -0.000166019156 0)
(0.100147587 -0.000170242973 0)
(0.100151174 -0.000144920552 0)
(0.100156045 -0.000148297287 0)
(0.100156501 -0.000125111965 0)
(0.100161947 -0.000127751062 0)
(0.100159593 -0.000106547366 0)
(0.100165531 -0.000108558922 0)
(0.100160673 -8.91765038e-05 0)
(0.100167024 -9.06745002e-05 0)
(0.100159965 -7.29475352e-05 0)
(0.100166641 -7.40514688e-05 0)
(0.100157684 -5.78085755e-05 0)
(0.10016459 -5.86290072e-05 0)
(0.100154038 -4.37094379e-05 0)
(0.100161066 -4.43425685e-05 0)
(0.100149218 -3.06083228e-05 0)
(0.100156254 -3.11218325e-05 0)
(0.100143363 -1.84852017e-05 0)
(0.100150324 -1.88846816e-05 0)
(0.100136466 -7.33441296e-06 0)
(0.100143437 -7.49596636e-06 0)
(0.100128493 2.81227119e-06 0)
(0.10013571 2.95804194e-06 0)
(0.100119857 1.18247339e-05 0)
(0.100127216 1.19936874e-05 0)
(0.100110848 1.96140973e-05 0)
(0.100118091 2.0172829e-05 0)
(0.100101197 2.63106447e-05 0)
(0.100108424 2.73395448e-05 0)
(0.100090924 3.21454585e-05 0)
(0.100098178 3.35940055e-05 0)
(0.100080112 3.72831762e-05 0)
(0.100087355 3.90912983e-05 0)
(0.100068845 4.18186083e-05 0)
(0.100076039 4.393412e-05 0)
(0.100057207 4.58190297e-05 0)
(0.100064321 4.81972258e-05 0)
(0.100045275 4.93385184e-05 0)
(0.100052285 5.19445241e-05 0)
(0.100033119 5.24224652e-05 0)
(0.100040012 5.52284151e-05 0)
(0.100020803 5.51118912e-05 0)
(0.100027573 5.80919213e-05 0)
(0.100008384 5.74432283e-05 0)
(0.100015031 6.05712539e-05 0)
(0.099995917 5.94467775e-05 0)
(0.100002441 6.26965367e-05 0)
(0.0999834472 6.11474443e-05 0)
(0.0999898494 6.44928202e-05 0)
(0.0999710156 6.25665652e-05 0)
(0.0999772975 6.59820283e-05 0)
(0.0999586574 6.37232266e-05 0)
(0.0999648184 6.71847501e-05 0)
(0.0999464025 6.4635025e-05 0)
(0.0999524397 6.81211193e-05 0)
(0.0999342762 6.53186676e-05 0)
(0.0999401856 6.88109852e-05 0)
(0.0999222999 6.57904648e-05 0)
(0.0999280766 6.92738382e-05 0)
(0.0999104918 6.60665537e-05 0)
(0.0999161308 6.95286868e-05 0)
(0.0998988674 6.61628324e-05 0)
(0.0999043642 6.9593889e-05 0)
(0.0998874404 6.60947554e-05 0)
(0.099892791 6.9486945e-05 0)
(0.0998762229 6.58771271e-05 0)
(0.0998814241 6.92242983e-05 0)
(0.0998652255 6.55239221e-05 0)
(0.0998702752 6.88211689e-05 0)
(0.0998544577 6.50481305e-05 0)
(0.0998593547 6.82914436e-05 0)
(0.0998439281 6.44616547e-05 0)
(0.0998486718 6.76476507e-05 0)
(0.0998336441 6.37752799e-05 0)
(0.0998382346 6.69010069e-05 0)
(0.0998236122 6.29987094e-05 0)
(0.0998280502 6.60615092e-05 0)
(0.099813838 6.21406433e-05 0)
(0.0998181245 6.51380519e-05 0)
(0.0998043258 6.12088858e-05 0)
(0.0998084621 6.41385646e-05 0)
(0.0997950794 6.02104641e-05 0)
(0.0997990669 6.30701613e-05 0)
(0.0997861014 5.91517474e-05 0)
(0.0997899417 6.19392889e-05 0)
(0.0997773939 5.8038559e-05 0)
(0.0997810884 6.07518622e-05 0)
(0.0997689584 5.68762692e-05 0)
(0.0997725084 5.95133726e-05 0)
(0.0997607957 5.56698673e-05 0)
(0.0997642023 5.82289654e-05 0)
(0.0997529064 5.44240103e-05 0)
(0.0997561707 5.69034861e-05 0)
(0.0997452908 5.31430487e-05 0)
(0.0997484134 5.55414961e-05 0)
(0.0997379488 5.18310334e-05 0)
(0.0997409305 5.41472693e-05 0)
(0.0997308806 5.04917112e-05 0)
(0.0997337218 5.27247734e-05 0)
(0.0997240859 4.91285057e-05 0)
(0.099726787 5.12776346e-05 0)
(0.0997175649 4.77444911e-05 0)
(0.099720126 4.98090966e-05 0)
(0.0997113174 4.63423547e-05 0)
(0.0997137388 4.83219863e-05 0)
(0.0997053436 4.49243725e-05 0)
(0.0997076251 4.68186719e-05 0)
(0.099699644 4.34922735e-05 0)
(0.0997017857 4.53010624e-05 0)
(0.099694219 4.20474413e-05 0)
(0.0996962188 4.37703552e-05 0)
(0.0996890695 4.05893042e-05 0)
(0.0996909319 4.22277517e-05 0)
(0.0996841968 3.91215908e-05 0)
(0.0996859012 4.06706014e-05 0)
(0.0996796 3.76204621e-05 0)
(0.0996812127 3.91098164e-05 0)
(0.0996752834 3.61829787e-05 0)
(0.0996765786 3.74873863e-05 0)
(0.0996711937 3.43122804e-05 0)
(0.0996730563 3.60779175e-05 0)
(0.0996672616 3.35839516e-05 0)
(0.0999907252 7.85654579e-05 0)
(0.0999980442 4.54643108e-05 0)
(0.0999645634 0.00015351234 0)
(0.0999819986 0.000135009933 0)
(0.0999227324 0.000219558835 0)
(0.099948854 0.000217998447 0)
(0.0998677868 0.000271515229 0)
(0.0998994859 0.000287659431 0)
(0.0998031199 0.000305299321 0)
(0.0998377872 0.000338391862 0)
(0.0997326827 0.000318832809 0)
(0.0997681118 0.000366286928 0)
(0.0996605888 0.000312631688 0)
(0.0996946228 0.000370440662 0)
(0.0995906625 0.000288964936 0)
(0.0996213418 0.000352881282 0)
(0.0995262474 0.000250422674 0)
(0.0995520343 0.000316747774 0)
(0.0994702512 0.000199529045 0)
(0.0994900638 0.000264866136 0)
(0.0994251214 0.000139787075 0)
(0.0994383475 0.000200260165 0)
(0.0993925887 7.70834572e-05 0)
(0.0993991788 0.0001279 0)
(0.0993732889 2.02431518e-05 0)
(0.0993737697 5.5898355e-05 0)
(0.0993643248 -2.11394899e-05 0)
(0.0993612565 -4.24536011e-06 0)
(0.0993613451 -3.93557524e-05 0)
(0.0993585891 -4.08973397e-05 0)
(0.0993613666 -3.00424457e-05 0)
(0.0993616321 -4.76010219e-05 0)
(0.099360439 6.52662803e-06 0)
(0.0993654452 -2.15768128e-05 0)
(0.0993528775 6.54958575e-05 0)
(0.0993645322 3.4437044e-05 0)
(0.0993336456 0.000138370517 0)
(0.0993537369 0.000111902011 0)
(0.0993013703 0.00021505261 0)
(0.0993295134 0.000199205843 0)
(0.0992560422 0.000286239658 0)
(0.0992907758 0.000285443566 0)
(0.0991993992 0.000344579634 0)
(0.0992385733 0.000360878091 0)
(0.0991342547 0.00038506358 0)
(0.0991754608 0.000418278622 0)
(0.0990640655 0.000405117105 0)
(0.0991049331 0.000453294464 0)
(0.0989925709 0.000404358909 0)
(0.0990309652 0.000464330671 0)
(0.0989234396 0.000384178023 0)
(0.0989576229 0.000452053726 0)
(0.0988600201 0.000347382275 0)
(0.0988887428 0.000418871959 0)
(0.0988051642 0.000298040955 0)
(0.098827705 0.000368631966 0)
(0.098761038 0.000241493582 0)
(0.09877725 0.000306579097 0)
(0.0987288795 0.000184351499 0)
(0.0987392522 0.000239459951 0)
(0.0987087212 0.000134222391 0)
(0.0987144318 0.000175474816 0)
(0.0986991596 9.89368839e-05 0)
(0.0987020652 0.000123742062 0)
(0.0986972947 8.52710505e-05 0)
(0.0986998179 9.31044823e-05 0)
(0.0986989618 9.74496912e-05 0)
(0.098703846 9.04091196e-05 0)
(0.0986993259 0.000135913515 0)
(0.0987092373 0.000118692711 0)
(0.0986937217 0.000196808391 0)
(0.0987107437 0.000176008007 0)
(0.0986784794 0.000272503217 0)
(0.0987036892 0.000255446141 0)
(0.0986515619 0.000353163078 0)
(0.0986848465 0.000346444491 0)
(0.0986128454 0.000428997717 0)
(0.0986530093 0.000437138873 0)
(0.098563951 0.000492506501 0)
(0.0986090682 0.000517126471 0)
(0.0985076665 0.000539997333 0)
(0.0985555705 0.000579779749 0)
(0.098447132 0.000571903024 0)
(0.0984959028 0.000623359454 0)
(0.0983850496 0.000591867587 0)
(0.0984333616 0.000650607635 0)
(0.0983231553 0.000605035584 0)
(0.0983704016 0.000667079333 0)
(0.0982620755 0.000616239981 0)
(0.0983082695 0.000678932324 0)
(0.0982015348 0.000628731353 0)
(0.098247067 0.000691025279 0)
(0.0981407634 0.000643770486 0)
(0.098186126 0.000705928253 0)
(0.0980789119 0.000660999605 0)
(0.0981244904 0.000723975405 0)
(0.0980153318 0.000679220145 0)
(0.0980613093 0.000744044754 0)
(0.0979496747 0.000697148757 0)
(0.097996038 0.000764540833 0)
(0.0978818469 0.000713870351 0)
(0.0979284506 0.00078413269 0)
(0.0978119029 0.000728932939 0)
(0.0978585398 0.000802053235 0)
(0.0977399477 0.000742202328 0)
(0.0977863955 0.000818023956 0)
(0.0976660862 0.000753650059 0)
(0.0977121232 0.00083200569 0)
(0.0975904185 0.000763201348 0)
(0.0976358189 0.000843967437 0)
(0.0975130597 0.000770683788 0)
(0.0975575829 0.000853770224 0)
(0.0974341628 0.000775850862 0)
(0.0974775461 0.00086116361 0)
(0.0973539314 0.000778431635 0)
(0.0973958903 0.000865840033 0)
(0.0972726223 0.000778170431 0)
(0.0973128549 0.000867492065 0)
(0.0971905405 0.000774844505 0)
(0.0972287342 0.000865845133 0)
(0.0971080335 0.000768265225 0)
(0.0971438705 0.000860665358 0)
(0.0970254857 0.000758273376 0)
(0.0970586476 0.000851754944 0)
(0.0969433139 0.000744735779 0)
(0.0969734849 0.000838946604 0)
(0.0968619636 0.000727545092 0)
(0.0968888335 0.00082210196 0)
(0.0967819043 0.000706621582 0)
(0.0968051714 0.000801113379 0)
(0.0967036246 0.000681915072 0)
(0.0967229992 0.000775906794 0)
(0.096627627 0.000653406167 0)
(0.0966428344 0.000746443581 0)
(0.0965544229 0.000621106839 0)
(0.0965652075 0.000712720917 0)
(0.0964845283 0.000585060528 0)
(0.0964906568 0.000674770836 0)
(0.0964184613 0.00054534185 0)
(0.0964197255 0.000632658402 0)
(0.0963567409 0.000502055739 0)
(0.0963529584 0.000586479498 0)
(0.0962998855 0.000455335654 0)
(0.0962908991 0.000536358527 0)
(0.0962484129 0.000405340884 0)
(0.0962340881 0.00048244615 0)
(0.0962028379 0.000352253976 0)
(0.0961830604 0.000424917354 0)
(0.0961636699 0.000296277848 0)
(0.0961383432 0.000363970284 0)
(0.0961314124 0.00023764071 0)
(0.0961004538 0.000299823221 0)
(0.0961065675 0.000176608736 0)