/*--------------------------------*- C++ -*----------------------------------*\
| =========                 |                                                 |
| \\      /  F ield         | OpenFOAM: The Open Source CFD Toolbox           |
|  \\    /   O peration     | Version:  v2012                                 |
|   \\  /    A nd           | Website:  www.openfoam.com                      |
|    \\/     M anipulation  |                                                 |
\*---------------------------------------------------------------------------*/
FoamFile
{
    version     2.0;
    format      ascii;
    class       volVectorField;
    location    "2.64";
    object      HbyA;
}
// * * * * * * * * * * * * * * * * * * * * * * * * * * * * * * * * * * * * * //

dimensions      [0 1 -1 0 0 0 0];


internalField   nonuniform List<vector> 
28416
(
(0.100001971 -8.94455046e-06 0)
(0.100012718 -1.73936542e-05 0)
(0.100027864 -1.24552258e-05 0)
(0.10004104 6.27827361e-06 0)
(0.100047819 3.6869763e-05 0)
(0.100044772 7.43371289e-05 0)
(0.100028713 0.000114426136 0)
(0.0999991627 0.000153039594 0)
(0.0999572874 0.000186363659 0)
(0.0999054124 0.000211280449 0)
(0.0998466388 0.000225751249 0)
(0.0997843603 0.000229055064 0)
(0.0997218986 0.000221687953 0)
(0.0996622921 0.000204956524 0)
(0.099608197 0.000180579295 0)
(0.0995618294 0.000150637212 0)
(0.0995248184 0.000117887165 0)
(0.099497903 8.60665015e-05 0)
(0.0994805827 5.97204541e-05 0)
(0.0994709137 4.33685435e-05 0)
(0.0994655561 4.03367517e-05 0)
(0.0994601478 5.1850761e-05 0)
(0.0994500918 7.67451421e-05 0)
(0.0994316124 0.000111746526 0)
(0.0994024243 0.000152161398 0)
(0.099361812 0.000192845126 0)
(0.0993105404 0.00022908099 0)
(0.0992505997 0.000257122177 0)
(0.0991847327 0.00027445025 0)
(0.0991159649 0.000279842581 0)
(0.0990472812 0.0002733157 0)
(0.0989814336 0.000256005118 0)
(0.0989208068 0.000230036868 0)
(0.0988673217 0.000198414184 0)
(0.0988223 0.000164871419 0)
(0.0987862408 0.000133661467 0)
(0.0987586164 0.000109186629 0)
(0.0987377214 9.54241151e-05 0)
(0.09872067 9.5299133e-05 0)
(0.0987037699 0.000110107999 0)
(0.0986832426 0.000139080651 0)
(0.098655969 0.000179285709 0)
(0.0986200042 0.000226085706 0)
(0.0985748055 0.000274101531 0)
(0.09852118 0.000318397808 0)
(0.0984609526 0.000355517674 0)
(0.0983964348 0.000384052585 0)
(0.0983298526 0.000404598436 0)
(0.0982628973 0.000419169659 0)
(0.098196508 0.000430327831 0)
(0.0981309056 0.000440352473 0)
(0.0980658102 0.00045071512 0)
(0.0980007293 0.000461956101 0)
(0.0979352023 0.000473891467 0)
(0.0978689393 0.000485973016 0)
(0.0978018433 0.000497619076 0)
(0.0977339581 0.000508405584 0)
(0.097665392 0.000518102538 0)
(0.0975962589 0.000526609791 0)
(0.0975266532 0.000533865984 0)
(0.0974566529 0.000539783765 0)
(0.0973863369 0.000544228555 0)
(0.0973158016 0.00054703018 0)
(0.0972451707 0.000548006723 0)
(0.0971745993 0.000546984057 0)
(0.0971042734 0.000543804364 0)
(0.0970344088 0.000538327379 0)
(0.0969652492 0.000530429674 0)
(0.0968970666 0.000520004432 0)
(0.0968301606 0.000506962383 0)
(0.0967648593 0.000491233762 0)
(0.0967015186 0.000472770687 0)
(0.0966405212 0.000451549428 0)
(0.0965822767 0.000427572276 0)
(0.0965272213 0.000400868737 0)
(0.0964758189 0.000371495516 0)
(0.0964285622 0.000339534996 0)
(0.0963859746 0.000305091629 0)
(0.0963486125 0.000268284858 0)
(0.0963170713 0.000229238137 0)
(0.0962919782 0.000188059922 0)
(0.096273899 0.000144818361 0)
(0.0962632556 9.95841714e-05 0)
(0.0962601868 5.24866404e-05 0)
(0.096264036 3.99064333e-06 0)
(0.0962762148 -4.45109267e-05 0)
(0.0962988867 -9.36335588e-05 0)
(0.0963318738 -0.000143656476 0)
(0.096374933 -0.00019432403 0)
(0.0964282174 -0.000245316178 0)
(0.0964918062 -0.000296300701 0)
(0.0965656363 -0.00034689497 0)
(0.0966495653 -0.000396683063 0)
(0.0967433595 -0.000445230922 0)
(0.0968466714 -0.000492087436 0)
(0.0969590406 -0.00053678831 0)
(0.0970798995 -0.000578866054 0)
(0.0972085793 -0.000617863672 0)
(0.0973443184 -0.000653350589 0)
(0.0974862721 -0.000684939018 0)
(0.0976335236 -0.000712298465 0)
(0.0977850962 -0.000735166756 0)
(0.0979399677 -0.000753357069 0)
(0.0980970861 -0.000766761284 0)
(0.0982553881 -0.000775350301 0)
(0.0984138177 -0.000779172063 0)
(0.0985713456 -0.000778347724 0)
(0.0987269864 -0.000773066183 0)
(0.098879815 -0.000763577076 0)
(0.0990289797 -0.000750182368 0)
(0.0991737128 -0.000733226817 0)
(0.099313338 -0.000713087705 0)
(0.0994472753 -0.000690164306 0)
(0.0995750426 -0.00066486753 0)
(0.0996962554 -0.000637610188 0)
(0.099810624 -0.000608798184 0)
(0.0999179485 -0.000578822797 0)
(0.100018113 -0.000548054332 0)
(0.100111077 -0.000516836719 0)
(0.100196869 -0.000485482739 0)
(0.100275576 -0.000454270696 0)
(0.100347341 -0.000423443217 0)
(0.100412353 -0.000393207583 0)
(0.100470837 -0.000363736987 0)
(0.100523047 -0.00033517232 0)
(0.100569248 -0.000307618432 0)
(0.100609724 -0.000281136608 0)
(0.10064479 -0.000255750336 0)
(0.100674805 -0.000231465578 0)
(0.100700142 -0.000208286764 0)
(0.100721168 -0.000186213066 0)
(0.100738229 -0.000165225317 0)
(0.100751666 -0.000145292419 0)
(0.10076182 -0.000126384017 0)
(0.10076903 -0.000108472939 0)
(0.100773622 -9.15326178e-05 0)
(0.100775909 -7.55367318e-05 0)
(0.100776204 -6.04691193e-05 0)
(0.10077481 -4.63397508e-05 0)
(0.100772008 -3.3195958e-05 0)
(0.100768033 -2.11280484e-05 0)
(0.100763079 -1.02955398e-05 0)
(0.100757094 -8.46941261e-07 0)
(0.100749822 7.39497164e-06 0)
(0.100741269 1.46862443e-05 0)
(0.100731686 2.11527416e-05 0)
(0.100721258 2.68670692e-05 0)
(0.100710084 3.19075028e-05 0)
(0.100698262 3.63491951e-05 0)
(0.1006859 4.02554004e-05 0)
(0.100673101 4.36805259e-05 0)
(0.100659955 4.66728581e-05 0)
(0.100646543 4.92750381e-05 0)
(0.10063294 5.15242003e-05 0)
(0.100619214 5.3452159e-05 0)
(0.100605426 5.50858375e-05 0)
(0.100591628 5.64481187e-05 0)
(0.100577865 5.7558915e-05 0)
(0.100564178 5.84361838e-05 0)
(0.100550599 5.90967401e-05 0)
(0.100537157 5.9556779e-05 0)
(0.100523875 5.98321052e-05 0)
(0.100510774 5.9938153e-05 0)
(0.100497872 5.98898993e-05 0)
(0.100485185 5.97017325e-05 0)
(0.100472728 5.93873051e-05 0)
(0.100460512 5.89593858e-05 0)
(0.100448548 5.84297273e-05 0)
(0.100436848 5.78089669e-05 0)
(0.10042542 5.71065725e-05 0)
(0.100414272 5.63308425e-05 0)
(0.100403409 5.54889655e-05 0)
(0.100392839 5.45871327e-05 0)
(0.100382564 5.36306919e-05 0)
(0.100372588 5.26243215e-05 0)
(0.100362914 5.15722036e-05 0)
(0.100353543 5.0478174e-05 0)
(0.100344477 4.9345835e-05 0)
(0.100335715 4.81786227e-05 0)
(0.100327258 4.69798243e-05 0)
(0.100319106 4.575255e-05 0)
(0.100311261 4.44996536e-05 0)
(0.100303723 4.32236572e-05 0)
(0.100296491 4.19263878e-05 0)
(0.100289578 4.06096448e-05 0)
(0.100282956 3.92702602e-05 0)
(0.100276744 3.79202598e-05 0)
(0.100270569 3.64858678e-05 0)
(0.100265869 3.52594028e-05 0)
(0.100258126 3.2813078e-05 0)
(0.100001694 -2.03313857e-05 0)
(0.100012922 -4.24793547e-05 0)
(0.100031442 -3.97561756e-05 0)
(0.100050965 -1.1735268e-05 0)
(0.100063974 3.83886398e-05 0)
(0.100064999 0.000102571793 0)
(0.100051167 0.000172136971 0)
(0.100021491 0.000239040732 0)
(0.0999770937 0.0002965099 0)
(0.0999206744 0.000339495357 0)
(0.0998558726 0.000364937786 0)
(0.0997867089 0.000371880058 0)
(0.0997171588 0.000361196453 0)
(0.0996508923 0.000334928615 0)
(0.0995911599 0.000295682065 0)
(0.0995407314 0.000246616125 0)
(0.0995017296 0.000192043326 0)
(0.0994752601 0.000138004187 0)
(0.0994609237 9.2042703e-05 0)
(0.0994565052 6.18921565e-05 0)
(0.0994581009 5.35120052e-05 0)
(0.0994606483 6.93351918e-05 0)
(0.0994586875 0.000107533343 0)
(0.0994473243 0.000162567313 0)
(0.0994231393 0.000226512751 0)
(0.0993846653 0.000290756042 0)
(0.0993324197 0.000347543961 0)
(0.099268607 0.00039096221 0)
(0.099196587 0.000417318527 0)
(0.0991202815 0.000425080382 0)
(0.099043689 0.000414566653 0)
(0.0989705565 0.00038759601 0)
(0.0989041681 0.000347243076 0)
(0.0988471772 0.000297743551 0)
(0.0988014189 0.000244440925 0)
(0.0987676477 0.000193629482 0)
(0.0987452564 0.000152105835 0)
(0.0987321524 0.00012630822 0)
(0.0987248625 0.000121167076 0)
(0.0987188662 0.000138940749 0)
(0.0987092185 0.000178428919 0)
(0.0986914312 0.000234915516 0)
(0.0986623573 0.000301002182 0)
(0.0986207705 0.00036820589 0)
(0.0985674729 0.000428871342 0)
(0.0985049128 0.000477802248 0)
(0.0984364326 0.000513115032 0)
(0.0983653852 0.000536100024 0)
(0.0982943881 0.000550228416 0)
(0.0982249164 0.00055972944 0)
(0.0981572983 0.000568265252 0)
(0.0980910314 0.00057811627 0)
(0.0980252392 0.000590026303 0)
(0.0979590799 0.000603578927 0)
(0.0978919886 0.000617809224 0)
(0.0978237284 0.000631750729 0)
(0.0977543085 0.000644739699 0)
(0.0976838552 0.000656458671 0)
(0.0976125085 0.00066681469 0)
(0.0975403739 0.000675777892 0)
(0.0974675241 0.000683268908 0)
(0.0973940259 0.000689122054 0)
(0.0973199675 0.000693104493 0)
(0.0972454748 0.000694955524 0)
(0.0971707142 0.000694419269 0)
(0.0970958894 0.00069126146 0)
(0.0970212397 0.000685271932 0)
(0.0969470387 0.000676261183 0)
(0.0968735923 0.000664058369 0)
(0.0968012387 0.000648512417 0)
(0.0967303479 0.000629494926 0)
(0.0966613209 0.000606903229 0)
(0.0965945888 0.000580662546 0)
(0.0965306104 0.000550726928 0)
(0.0964698717 0.000517079124 0)
(0.0964128831 0.000479729497 0)
(0.0963601783 0.000438714241 0)
(0.0963123111 0.00039409264 0)
(0.0962698514 0.000345942835 0)
(0.0962333784 0.000294355076 0)
(0.096203455 0.000239418082 0)
(0.0961806034 0.00018121701 0)
(0.0961653251 0.000119899833 0)
(0.0961582697 5.57179031e-05 0)
(0.0961603795 -1.09640471e-05 0)
(0.0961719408 -7.90429302e-05 0)
(0.0961931664 -0.000148540419 0)
(0.0962247867 -0.000219383764 0)
(0.0962671523 -0.000291163601 0)
(0.0963204427 -0.00036341079 0)
(0.0963847836 -0.00043562808 0)
(0.0964602008 -0.000507252844 0)
(0.0965466055 -0.000577666677 0)
(0.0966437924 -0.000646215347 0)
(0.0967514298 -0.000712221207 0)
(0.0968690551 -0.000774997697 0)
(0.0969960767 -0.000833867293 0)
(0.0971317783 -0.000888180013 0)
(0.0972753258 -0.000937331768 0)
(0.0974257779 -0.000980782218 0)
(0.0975820997 -0.00101807119 0)
(0.0977431784 -0.00104883271 0)
(0.0979078432 -0.00107280594 0)
(0.0980748867 -0.00108984256 0)
(0.098243089 -0.00109991009 0)
(0.0984112413 -0.00110309102 0)
(0.0985781703 -0.00109957794 0)
(0.0987427596 -0.00108966508 0)
(0.098903969 -0.00107373675 0)
(0.0990608504 -0.00105225355 0)
(0.0992125603 -0.00102573701 0)
(0.0993583674 -0.000994753497 0)
(0.0994976578 -0.000959898109 0)
(0.0996299353 -0.000921779145 0)
(0.0997548199 -0.000881003754 0)
(0.0998720428 -0.000838165122 0)
(0.0999814391 -0.000793831453 0)
(0.10008294 -0.000748537029 0)
(0.100176563 -0.000702775036 0)
(0.100262401 -0.000656991941 0)
(0.100340612 -0.00061158403 0)
(0.100411412 -0.000566896068 0)
(0.100475058 -0.000523221084 0)
(0.100531845 -0.000480801084 0)
(0.100582097 -0.000439828854 0)
(0.100626163 -0.000400447575 0)
(0.100664414 -0.00036274914 0)
(0.100697225 -0.000326780599 0)
(0.100724972 -0.000292559907 0)
(0.100748034 -0.000260088328 0)
(0.100766802 -0.000229359334 0)
(0.100781656 -0.000200361988 0)
(0.100792948 -0.000173067853 0)
(0.100801013 -0.000147432418 0)
(0.100806185 -0.00012340834 0)
(0.100808789 -0.000100963894 0)
(0.100809128 -8.00733572e-05 0)
(0.100807473 -6.07075967e-05 0)
(0.100804054 -4.28405841e-05 0)
(0.100799061 -2.64585313e-05 0)
(0.100792601 -1.15130012e-05 0)
(0.100784797 2.10225917e-06 0)
(0.100775982 1.42582542e-05 0)
(0.100766367 2.49623968e-05 0)
(0.100755898 3.44269605e-05 0)
(0.100744615 4.28036364e-05 0)
(0.100732652 5.01753047e-05 0)
(0.10072011 5.66302181e-05 0)
(0.10070707 6.22613249e-05 0)
(0.100693618 6.7150213e-05 0)
(0.10067984 7.13677277e-05 0)
(0.100665813 7.49776656e-05 0)
(0.100651605 7.8037775e-05 0)
(0.100637281 8.06001277e-05 0)
(0.100622898 8.27114755e-05 0)
(0.100608506 8.44136217e-05 0)
(0.100594152 8.57439745e-05 0)
(0.100579876 8.67361508e-05 0)
(0.100565713 8.74204993e-05 0)
(0.100551695 8.78245794e-05 0)
(0.100537847 8.79735971e-05 0)
(0.100524192 8.7890752e-05 0)
(0.100510749 8.75974915e-05 0)
(0.100497537 8.71136965e-05 0)
(0.100484569 8.64578107e-05 0)
(0.100471857 8.56469226e-05 0)
(0.100459413 8.46968091e-05 0)
(0.100447245 8.36219611e-05 0)
(0.100435361 8.24356049e-05 0)
(0.100423767 8.1149731e-05 0)
(0.10041247 7.97751353e-05 0)
(0.100401474 7.83214796e-05 0)
(0.100390782 7.67973699e-05 0)
(0.100380398 7.52104469e-05 0)
(0.100370322 7.3567486e-05 0)
(0.100360558 7.18744963e-05 0)
(0.100351104 7.01368102e-05 0)
(0.100341963 6.83591579e-05 0)
(0.100333133 6.6545719e-05 0)
(0.100324615 6.47001438e-05 0)
(0.100316409 6.28255437e-05 0)
(0.100308514 6.09244259e-05 0)
(0.10030093 5.89986496e-05 0)
(0.100293656 5.70489396e-05 0)
(0.1002867 5.5076045e-05 0)
(0.100280031 5.30733403e-05 0)
(0.100273766 5.10584907e-05 0)
(0.100267492 4.89227038e-05 0)
(0.100262707 4.71101893e-05 0)
(0.100254513 4.35807256e-05 0)
(0.100001823 -2.6794338e-05 0)
(0.100012834 -5.80152578e-05 0)
(0.100030243 -5.97782959e-05 0)
(0.100048327 -3.21583012e-05 0)
(0.100060206 2.06860999e-05 0)
(0.100060381 9.13169345e-05 0)
(0.100046072 0.00016978471 0)
(0.10001661 0.000246092328 0)
(0.099973 0.000312040869 0)
(0.0999177097 0.000361750593 0)
(0.0998541454 0.000391723524 0)
(0.0997861275 0.000400826312 0)
(0.0997174877 0.000389962538 0)
(0.099651804 0.000361337068 0)
(0.0995922647 0.000317777457 0)
(0.0995415959 0.000262728362 0)
(0.0995019051 0.000200957222 0)
(0.0994743437 0.000139244328 0)
(0.0994586664 8.61536608e-05 0)
(0.0994528883 5.05561058e-05 0)
(0.0994532173 3.93978848e-05 0)
(0.099454492 5.57475269e-05 0)
(0.0994512463 9.79585267e-05 0)
(0.0994388586 0.000160054017 0)
(0.0994142245 0.000233148801 0)
(0.0993760288 0.000307380718 0)
(0.0993247483 0.000373699098 0)
(0.0992623959 0.000425076151 0)
(0.0991920699 0.000457041211 0)
(0.0991174456 0.000467663634 0)
(0.0990423361 0.000457205411 0)
(0.0989703686 0.000427684441 0)
(0.0989047537 0.000382544465 0)
(0.0988480996 0.000326512014 0)
(0.0988022185 0.000265559763 0)
(0.098767896 0.000206768328 0)
(0.0987446569 0.00015786148 0)
(0.0987305966 0.000126269488 0)
(0.0987223849 0.000117808852 0)
(0.098715629 0.00013535034 0)
(0.0987056003 0.000177868893 0)
(0.0986880629 0.000240258277 0)
(0.0986599959 0.000314161089 0)
(0.0986200939 0.000389726945 0)
(0.0985689059 0.00045784115 0)
(0.0985085426 0.000512140713 0)
(0.0984420293 0.000550173016 0)
(0.0983725044 0.000573359142 0)
(0.0983025094 0.000585866803 0)
(0.0982335691 0.000592886196 0)
(0.0981661397 0.000598969215 0)
(0.0980998655 0.000606974605 0)
(0.098033985 0.000617837322 0)
(0.0979677155 0.000631021681 0)
(0.0979004952 0.00064529161 0)
(0.0978320541 0.000659412666 0)
(0.0977623546 0.000672549556 0)
(0.0976914818 0.000684327373 0)
(0.0976195466 0.000694674792 0)
(0.0975466382 0.000703611525 0)
(0.0974728208 0.000711097202 0)
(0.0973981552 0.000716979316 0)
(0.0973227249 0.000721015804 0)
(0.0972466524 0.000722925352 0)
(0.0971701066 0.00072242959 0)
(0.0970933012 0.000719274203 0)
(0.0970164892 0.000713231361 0)
(0.0969399585 0.000704094218 0)
(0.0968640318 0.000691672947 0)
(0.0967890658 0.000675794983 0)
(0.0967154505 0.000656308029 0)
(0.0966436082 0.000633083744 0)
(0.0965739906 0.000606020757 0)
(0.0965070777 0.000575046662 0)
(0.096443376 0.000540119114 0)
(0.0963834164 0.000501226248 0)
(0.0963277538 0.000458386531 0)
(0.0962769642 0.00041164799 0)
(0.0962316431 0.000361087326 0)
(0.0961924 0.000306808865 0)
(0.0961598594 0.00024894527 0)
(0.0961346581 0.000187675234 0)
(0.0961173983 0.000123226911 0)
(0.0961084159 5.58584364e-05 0)
(0.0961079355 -1.41258813e-05 0)
(0.0961168631 -8.65777064e-05 0)
(0.0961361981 -0.000161032079 0)
(0.0961663156 -0.000237156375 0)
(0.0962074864 -0.000314557811 0)
(0.0962600039 -0.000392732334 0)
(0.0963240729 -0.000471102811 0)
(0.0963997727 -0.000549029274 0)
(0.0964870648 -0.000625814126 0)
(0.0965857846 -0.000700715038 0)
(0.0966956284 -0.00077295814 0)
(0.0968161462 -0.000841752903 0)
(0.0969467406 -0.000906311251 0)
(0.0970866682 -0.000965869859 0)
(0.097235046 -0.00101971401 0)
(0.0973908618 -0.00106720154 0)
(0.0975529906 -0.00110778496 0)
(0.0977202147 -0.00114103005 0)
(0.0978912472 -0.00116662971 0)
(0.0980647595 -0.00118441265 0)
(0.0982394094 -0.0011943466 0)
(0.0984138704 -0.00119653629 0)
(0.0985868589 -0.00119121675 0)
(0.0987571599 -0.00117874233 0)
(0.0989236488 -0.0011595721 0)
(0.0990853092 -0.00113425271 0)
(0.0992412465 -0.00110339931 0)
(0.0993906963 -0.00106767575 0)
(0.0995330284 -0.00102777497 0)
(0.0996677467 -0.000984400218 0)
(0.0997944854 -0.000938248108 0)
(0.0999130018 -0.000889993673 0)
(0.100023168 -0.000840277892 0)
(0.100124957 -0.00078969779 0)
(0.100218437 -0.000738799065 0)
(0.10030375 -0.000688071049 0)
(0.100381106 -0.000637943992 0)
(0.100450773 -0.000588788271 0)
(0.100513061 -0.00054091503 0)
(0.100568316 -0.000494578004 0)
(0.100616906 -0.000449976213 0)
(0.100659219 -0.000407259339 0)
(0.100695647 -0.000366535028 0)
(0.100726596 -0.000327873571 0)
(0.100752476 -0.000291310755 0)
(0.10077369 -0.000256851773 0)
(0.100790619 -0.000224481567 0)
(0.100803636 -0.000194175591 0)
(0.100813119 -0.000165892468 0)
(0.100819432 -0.000139572117 0)
(0.100822899 -0.000115144522 0)
(0.100823819 -9.25230688e-05 0)
(0.100822506 -7.16207404e-05 0)
(0.10081927 -5.23559216e-05 0)
(0.100814397 -3.46344873e-05 0)
(0.100808193 -1.8401684e-05 0)
(0.100801003 -3.71121348e-06 0)
(0.100792817 9.5283978e-06 0)
(0.100783466 2.15144793e-05 0)
(0.100773085 3.22391115e-05 0)
(0.100761844 4.17477054e-05 0)
(0.100749844 5.01573377e-05 0)
(0.100737199 5.75615956e-05 0)
(0.100724016 6.40404954e-05 0)
(0.100710386 6.96769309e-05 0)
(0.100696393 7.45502329e-05 0)
(0.100682118 7.87322515e-05 0)
(0.100667637 8.22882855e-05 0)
(0.100653016 8.52776632e-05 0)
(0.100638319 8.77538582e-05 0)
(0.100623602 8.97647707e-05 0)
(0.100608913 9.1353198e-05 0)
(0.100594296 9.25575053e-05 0)
(0.10057979 9.34123586e-05 0)
(0.100565425 9.39493504e-05 0)
(0.100551229 9.41975029e-05 0)
(0.100537225 9.41836589e-05 0)
(0.100523433 9.3932744e-05 0)
(0.10050987 9.34679152e-05 0)
(0.10049655 9.28106413e-05 0)
(0.100483486 9.19807532e-05 0)
(0.100470689 9.09964776e-05 0)
(0.100458169 8.98744652e-05 0)
(0.100445934 8.86298221e-05 0)
(0.10043399 8.72761549e-05 0)
(0.100422345 8.58256325e-05 0)
(0.100411004 8.42890678e-05 0)
(0.100399969 8.267602e-05 0)
(0.100389245 8.0994914e-05 0)
(0.100378833 7.92531698e-05 0)
(0.100368735 7.74573348e-05 0)
(0.100358952 7.5613208e-05 0)
(0.100349484 7.37259437e-05 0)
(0.10034033 7.18001306e-05 0)
(0.10033149 6.98398385e-05 0)
(0.100322963 6.78486294e-05 0)
(0.100314748 6.58295387e-05 0)
(0.100306844 6.37850045e-05 0)
(0.100299251 6.17168497e-05 0)
(0.100291964 5.96258036e-05 0)
(0.100284994 5.75130091e-05 0)
(0.100278307 5.53719965e-05 0)
(0.10027202 5.32247382e-05 0)
(0.100265733 5.09572119e-05 0)
(0.100260934 4.90550584e-05 0)
(0.100252915 4.53789912e-05 0)
(0.100001857 -3.4772552e-05 0)
(0.10001388 -7.6293211e-05 0)
(0.100033498 -8.00707696e-05 0)
(0.100053925 -4.58043457e-05 0)
(0.100067683 2.16286773e-05 0)
(0.100069608 0.000112544744 0)
(0.1000564 0.000213840784 0)
(0.100026777 0.000312560972 0)
(0.0999817586 0.000398078764 0)
(0.0999239668 0.000462792423 0)
(0.0998570588 0.000502190242 0)
(0.0997852028 0.000514771823 0)
(0.099712635 0.000501618901 0)
(0.0996433561 0.000465478772 0)
(0.0995809577 0.000409911134 0)
(0.0995285034 0.000339276628 0)
(0.0994883233 0.000259629333 0)
(0.0994616224 0.000179615231 0)
(0.09944799 0.000110218955 0)
(0.0994450814 6.29042341e-05 0)
(0.099448794 4.67842326e-05 0)
(0.0994539109 6.60360478e-05 0)
(0.099454781 0.00011861911 0)
(0.0994461463 0.000196846772 0)
(0.0994241632 0.000289312255 0)
(0.0993870448 0.00038337822 0)
(0.0993351405 0.000467473851 0)
(0.0992706239 0.000532658462 0)
(0.0991969623 0.000573290481 0)
(0.0991183271 0.000586957829 0)
(0.0990390827 0.000573982364 0)
(0.0989634067 0.000536835034 0)
(0.0988950198 0.0004797218 0)
(0.0988369577 0.000408437322 0)
(0.0987913235 0.000330378482 0)
(0.0987589947 0.000254435721 0)
(0.0987393327 0.000190451603 0)
(0.0987300595 0.00014807075 0)
(0.0987274463 0.000134995069 0)
(0.0987267279 0.000155112388 0)
(0.0987226811 0.000207172361 0)
(0.0987104538 0.000284579854 0)
(0.0986864855 0.000376565338 0)
(0.0986491787 0.000470523611 0)
(0.0985990933 0.000554874692 0)
(0.0985386041 0.000621585895 0)
(0.0984711403 0.000667595502 0)
(0.0984002616 0.000694744711 0)
(0.0983288534 0.00070834917 0)
(0.0982586541 0.000715022974 0)
(0.0981901957 0.000720580009 0)
(0.098123088 0.000728693842 0)
(0.098056471 0.000740595115 0)
(0.0979894443 0.000755635764 0)
(0.0979213429 0.000772261137 0)
(0.0978518205 0.000788903011 0)
(0.0977807913 0.000804491414 0)
(0.0977083099 0.000818540736 0)
(0.0976344673 0.000830956569 0)
(0.097559336 0.000841767746 0)
(0.0974829657 0.000850933017 0)
(0.0974054063 0.000858272146 0)
(0.097326735 0.000863492038 0)
(0.0972470743 0.000866249247 0)
(0.0971665978 0.000866202217 0)
(0.0970855274 0.000863035262 0)
(0.0970041295 0.000856461314 0)
(0.096922711 0.00084621686 0)
(0.096841619 0.000832058036 0)
(0.0967612389 0.000813761129 0)
(0.0966819935 0.000791126382 0)
(0.0966043417 0.000763982377 0)
(0.0965287762 0.000732189156 0)
(0.096455821 0.000695639641 0)
(0.0963860285 0.000654259754 0)
(0.0963199765 0.000608007794 0)
(0.0962582648 0.000556873554 0)
(0.0962015117 0.000500877532 0)
(0.0961503497 0.00044007031 0)
(0.09610542 0.000374532513 0)
(0.0960673675 0.000304375669 0)
(0.0960368211 0.000229738969 0)
(0.0960143799 0.000150791295 0)
(0.0960008115 6.77772965e-05 0)
(0.0959969786 -1.88421824e-05 0)
(0.096003376 -0.000108474575 0)
(0.0960204217 -0.0002007532 0)
(0.0960487369 -0.000295241725 0)
(0.0960888422 -0.000391370382 0)
(0.0961411116 -0.000488487288 0)
(0.0962058203 -0.000585866216 0)
(0.0962831329 -0.000682697452 0)
(0.0963730806 -0.000778094849 0)
(0.096475546 -0.00087111274 0)
(0.0965902502 -0.000960765184 0)
(0.096716742 -0.00104604825 0)
(0.0968543927 -0.00112596589 0)
(0.0970023967 -0.00119955788 0)
(0.0971597782 -0.00126592847 0)
(0.0973254043 -0.00132427464 0)
(0.0974980041 -0.00137391268 0)
(0.0976761937 -0.00141430135 0)
(0.0978585056 -0.00144506027 0)
(0.098043422 -0.00146598226 0)
(0.0982294104 -0.00147703871 0)
(0.0984149589 -0.00147837779 0)
(0.0985986107 -0.00147031569 0)
(0.0987789946 -0.00145332177 0)
(0.0989548521 -0.00142799874 0)
(0.099125058 -0.00139505916 0)
(0.0992886356 -0.00135529996 0)
(0.0994447657 -0.00130957611 0)
(0.0995927894 -0.00125877494 0)
(0.0997322067 -0.00120379195 0)
(0.0998626697 -0.00114550926 0)
(0.0999839724 -0.00108477685 0)
(0.100096039 -0.00102239731 0)
(0.100198908 -0.000959113843 0)
(0.100292719 -0.000895601688 0)
(0.100377697 -0.000832462401 0)
(0.100454135 -0.000770221013 0)
(0.100522383 -0.000709325888 0)
(0.100582831 -0.000650150784 0)
(0.100635901 -0.000592998415 0)
(0.100682036 -0.00053810498 0)
(0.100721689 -0.000485645064 0)
(0.100755321 -0.000435736797 0)
(0.10078339 -0.000388448929 0)
(0.100806345 -0.000343810039 0)
(0.100824624 -0.000301817679 0)
(0.100838652 -0.000262439176 0)
(0.10084884 -0.000225610245 0)
(0.100855578 -0.000191250517 0)
(0.100859237 -0.000159273604 0)
(0.100860181 -0.000129586787 0)
(0.100858754 -0.00010208343 0)
(0.100855253 -7.66614359e-05 0)
(0.100849957 -5.32486253e-05 0)
(0.100843068 -3.18173302e-05 0)
(0.100834603 -1.2301651e-05 0)
(0.100824707 5.40694597e-06 0)
(0.100813797 2.12345692e-05 0)
(0.100802092 3.53168585e-05 0)
(0.100789628 4.7834458e-05 0)
(0.100776497 5.89067025e-05 0)
(0.100762795 6.86576927e-05 0)
(0.100748612 7.72062764e-05 0)
(0.100734037 8.465612e-05 0)
(0.100719151 9.11044877e-05 0)
(0.100704027 9.66433562e-05 0)
(0.100688735 0.000101357112 0)
(0.100673336 0.000105322683 0)
(0.100657887 0.000108610468 0)
(0.100642438 0.000111284921 0)
(0.100627034 0.000113404846 0)
(0.100611715 0.000115023587 0)
(0.100596518 0.000116189331 0)
(0.100581475 0.000116945568 0)
(0.100566615 0.000117331565 0)
(0.100551963 0.000117382854 0)
(0.100537541 0.000117131688 0)
(0.100523368 0.000116607475 0)
(0.100509459 0.000115837126 0)
(0.100495827 0.000114845327 0)
(0.100482483 0.000113654749 0)
(0.100469435 0.000112286205 0)
(0.100456692 0.000110758768 0)
(0.100444257 0.000109089867 0)
(0.100432137 0.000107295371 0)
(0.100420333 0.000105389671 0)
(0.100408849 0.000103385759 0)
(0.100397687 0.000101295311 0)
(0.100386847 9.91287679e-05 0)
(0.10037633 9.68954275e-05 0)
(0.100366137 9.46035226e-05 0)
(0.100356267 9.22603043e-05 0)
(0.10034672 8.98721166e-05 0)
(0.100337495 8.74444645e-05 0)
(0.10032859 8.49820729e-05 0)
(0.100320004 8.24889273e-05 0)
(0.100311736 7.99683004e-05 0)
(0.100303784 7.7422732e-05 0)
(0.100296147 7.48540929e-05 0)
(0.100288821 7.22630926e-05 0)
(0.100281812 6.96512555e-05 0)
(0.100275084 6.70111625e-05 0)
(0.100268755 6.43707378e-05 0)
(0.100262403 6.15913227e-05 0)
(0.100257549 5.92681277e-05 0)
(0.100249229 5.47795114e-05 0)
(0.100001859 -4.28059327e-05 0)
(0.10001359 -9.58438026e-05 0)
(0.100032774 -0.000104953387 0)
(0.100053374 -6.93459161e-05 0)
(0.100067946 6.15389536e-06 0)
(0.100070234 0.00011025708 0)
(0.100056865 0.000227426316 0)
(0.10002711 0.000342143504 0)
(0.0999819526 0.000441833964 0)
(0.0999239343 0.000517661502 0)
(0.0998566649 0.000564408607 0)
(0.0997842714 0.000580259098 0)
(0.0997109691 0.000566298981 0)
(0.099640761 0.000525512983 0)
(0.0995772635 0.000461848559 0)
(0.0995235889 0.000380222269 0)
(0.09948215 0.000287558555 0)
(0.0994542915 0.00019383768 0)
(0.0994398138 0.000111828644 0)
(0.0994366155 5.4970959e-05 0)
(0.0994406234 3.40713414e-05 0)
(0.0994461825 5.42470612e-05 0)
(0.09944724 0.000113449049 0)
(0.0994386453 0.000202972948 0)
(0.0994168217 0.000309653169 0)
(0.0993800934 0.000418782334 0)
(0.0993287652 0.000516805267 0)
(0.0992648887 0.000593176458 0)
(0.0991917993 0.000641184727 0)
(0.0991135738 0.000657898992 0)
(0.0990345352 0.000643589151 0)
(0.0989588644 0.000601025119 0)
(0.0988903109 0.000534976051 0)
(0.0988319587 0.000452039159 0)
(0.0987859883 0.000360672209 0)
(0.0987534177 0.000271106835 0)
(0.0987338779 0.000194725597 0)
(0.0987253758 0.000142674512 0)
(0.0987241962 0.000123959144 0)
(0.0987253046 0.000143341297 0)
(0.0987232079 0.000199694207 0)
(0.098712938 0.000285718793 0)
(0.0986909123 0.000389153653 0)
(0.0986555115 0.000495339474 0)
(0.0986072246 0.000590577256 0)
(0.0985483247 0.000665212359 0)
(0.0984821688 0.000715441347 0)
(0.0984123091 0.000743329717 0)
(0.0983416761 0.000755169081 0)
(0.0982720746 0.000758889141 0)
(0.0982040937 0.000761518675 0)
(0.0981373711 0.00076753577 0)
(0.0980710427 0.000778467468 0)
(0.0980041806 0.000793550121 0)
(0.097936081 0.000810901757 0)
(0.0978663585 0.000828612812 0)
(0.0977948931 0.000845379718 0)
(0.097721712 0.000860618714 0)
(0.0976468832 0.000874233645 0)
(0.09757046 0.000886287071 0)
(0.0974924756 0.000896759724 0)
(0.0974129669 0.000905462047 0)
(0.0973320025 0.000912063548 0)
(0.0972497015 0.000916168288 0)
(0.0971662401 0.000917379278 0)
(0.0970818495 0.000915329707 0)
(0.0969968117 0.000909687022 0)
(0.0969114559 0.000900145726 0)
(0.0968261558 0.000886421343 0)
(0.0967413279 0.000868250113 0)
(0.096657429 0.000845392985 0)
(0.096574953 0.000817640645 0)
(0.0964944271 0.000784817342 0)
(0.0964164081 0.000746783009 0)
(0.0963414792 0.000703434096 0)
(0.0962702475 0.000654703664 0)
(0.0962033419 0.000600561209 0)
(0.0961414113 0.00054101252 0)
(0.0960851225 0.000476099799 0)
(0.0960351576 0.000405903007 0)
(0.0959922111 0.000330543694 0)
(0.0959569884 0.000250189836 0)
(0.0959302081 0.000165074451 0)
(0.0959125198 7.55091763e-05 0)
(0.0959045126 -1.82466279e-05 0)
(0.0959069568 -0.00011591169 0)
(0.0959206737 -0.000216997564 0)
(0.0959462946 -0.000320959869 0)
(0.0959843625 -0.000427189166 0)
(0.096035366 -0.000534962463 0)
(0.0960996963 -0.000643444643 0)
(0.0961776164 -0.000751698627 0)
(0.0962692432 -0.000858693178 0)
(0.0963745287 -0.000963316463 0)
(0.0964932406 -0.00106439615 0)
(0.0966249464 -0.00116072533 0)
(0.0967690037 -0.00125109422 0)
(0.0969245573 -0.00133432657 0)
(0.0970905435 -0.00140931841 0)
(0.0972657038 -0.00147507669 0)
(0.0974486076 -0.00153075542 0)
(0.0976376827 -0.00157568656 0)
(0.0978312528 -0.00160940385 0)
(0.0980275797 -0.00163165819 0)
(0.0982249087 -0.00164242367 0)
(0.0984215129 -0.00164189427 0)
(0.0986157363 -0.00163047161 0)
(0.0988060315 -0.00160874492 0)
(0.0989909915 -0.00157746472 0)
(0.0991693744 -0.00153751206 0)
(0.0993401202 -0.00148986527 0)
(0.0995023592 -0.00143556617 0)
(0.0996554139 -0.00137568751 0)
(0.0997987941 -0.00131130282 0)
(0.0999321865 -0.00124346002 0)
(0.100055441 -0.00117315916 0)
(0.100168553 -0.00110133474 0)
(0.100271644 -0.00102884257 0)
(0.100364945 -0.000956450982 0)
(0.100448775 -0.000884835921 0)
(0.10052352 -0.000814579476 0)
(0.100589624 -0.000746171253 0)
(0.100647566 -0.000680011876 0)
(0.100697852 -0.000616418142 0)
(0.100741 -0.000555629519 0)
(0.100777531 -0.000497815835 0)
(0.100807964 -0.000443085814 0)
(0.100832807 -0.00039149548 0)
(0.100852552 -0.000343055698 0)
(0.100867673 -0.000297739347 0)
(0.100878623 -0.00025548877 0)
(0.100885829 -0.000216223567 0)
(0.100889696 -0.000179847881 0)
(0.100890602 -0.000146254588 0)
(0.100888893 -0.00011532771 0)
(0.100884881 -8.69557239e-05 0)
(0.100878837 -6.10224859e-05 0)
(0.100870988 -3.73980944e-05 0)
(0.10086161 -1.59453083e-05 0)
(0.100851105 3.47115691e-06 0)
(0.100839657 2.10324792e-05 0)
(0.100827288 3.68738888e-05 0)
(0.10081412 5.10380713e-05 0)
(0.100800269 6.36278985e-05 0)
(0.100785841 7.47537878e-05 0)
(0.100770933 8.45257865e-05 0)
(0.100755635 9.30542089e-05 0)
(0.100740032 0.000100443042 0)
(0.100724201 0.000106790357 0)
(0.100708209 0.000112189212 0)
(0.100692122 0.00011672646 0)
(0.100675997 0.000120482147 0)
(0.100659889 0.000123529737 0)
(0.100643847 0.000125936516 0)
(0.100627913 0.000127764049 0)
(0.100612124 0.000129068642 0)
(0.100596514 0.000129901766 0)
(0.100581109 0.00013031042 0)
(0.100565931 0.000130337472 0)
(0.100551001 0.00013002197 0)
(0.100536333 0.000129399444 0)
(0.100521943 0.000128502187 0)