/*--------------------------------*- C++ -*----------------------------------*\
| =========                 |                                                 |
| \\      /  F ield         | OpenFOAM: The Open Source CFD Toolbox           |
|  \\    /   O peration     | Version:  v2012                                 |
|   \\  /    A nd           | Website:  www.openfoam.com                      |
|    \\/     M anipulation  |                                                 |
\*---------------------------------------------------------------------------*/
FoamFile
{
    version     2.0;
    format      ascii;
    class       volVectorField;
    location    "2.64";
    object      U;
}
// * * * * * * * * * * * * * * * * * * * * * * * * * * * * * * * * * * * * * //

dimensions      [0 1 -1 0 0 0 0];


internalField   nonuniform List<vector> 
28416
(
(0.100002033 -9.15149809e-06 0)
(0.100012918 -1.76059969e-05 0)
(0.10002821 -1.26670842e-05 0)
(0.100041506 6.07469833e-06 0)
(0.100048402 3.66874964e-05 0)
(0.100045498 7.41755312e-05 0)
(0.100029587 0.000114282124 0)
(0.100000186 0.000152912942 0)
(0.0999584624 0.000186252399 0)
(0.09990674 0.00021118198 0)
(0.0998481176 0.000225662921 0)
(0.0997859868 0.00022897443 0)
(0.0997236681 0.000221612871 0)
(0.0996641985 0.000204885182 0)
(0.0996102335 0.000180510227 0)
(0.0995639875 0.000150569366 0)
(0.0995270885 0.000117820071 0)
(0.0995002742 8.60005472e-05 0)
(0.0994830435 5.96571302e-05 0)
(0.0994734526 4.33105541e-05 0)
(0.0994681634 4.02877668e-05 0)
(0.0994628175 5.18142401e-05 0)
(0.0994528189 7.67226147e-05 0)
(0.0994343872 0.000111738284 0)
(0.0994052351 0.000152168299 0)
(0.0993646472 0.000192867753 0)
(0.099313388 0.000229119627 0)
(0.0992534468 0.000257176875 0)
(0.0991875654 0.000274520985 0)
(0.0991187679 0.000279929433 0)
(0.0990500386 0.000273418943 0)
(0.0989841288 0.000256125247 0)
(0.0989234228 0.000230174608 0)
(0.0988698414 0.000198570437 0)
(0.0988247067 0.000165047115 0)
(0.0987885185 0.000133857341 0)
(0.0987607499 0.000109402822 0)
(0.0987396961 9.56597285e-05 0)
(0.098722471 9.55520551e-05 0)
(0.0987053814 0.000110375234 0)
(0.0986846471 0.000139359261 0)
(0.0986571485 0.000179573618 0)
(0.0986209415 0.000226381796 0)
(0.0985754852 0.000274405275 0)
(0.0985215884 0.000318708852 0)
(0.0984610782 0.000355835547 0)
(0.0983962677 0.000384376557 0)
(0.0983293848 0.000404927469 0)
(0.0982621224 0.000419502422 0)
(0.0981954212 0.000430662745 0)
(0.0981295037 0.000440687786 0)
(0.0980640918 0.000451048989 0)
(0.0979986943 0.000462286675 0)
(0.0979328525 0.000474216954 0)
(0.0978662779 0.000486291731 0)
(0.0977988753 0.000497929466 0)
(0.0977306901 0.000508706245 0)
(0.0976618317 0.000518392228 0)
(0.0975924156 0.000526887435 0)
(0.0975225371 0.000534130685 0)
(0.0974522756 0.000540034804 0)
(0.0973817107 0.000544465399 0)
(0.0973109395 0.000547252474 0)
(0.0972400865 0.000548214281 0)
(0.0971693071 0.000547176846 0)
(0.0970987877 0.000543982481 0)
(0.0970287442 0.000538491032 0)
(0.0969594207 0.000530579159 0)
(0.0968910887 0.000520140111 0)
(0.0968240479 0.000507084663 0)
(0.0967586261 0.00049134307 0)
(0.0966951789 0.000472867449 0)
(0.0966340885 0.000451634052 0)
(0.0965757642 0.000427645135 0)
(0.0965206416 0.000400930154 0)
(0.0964691842 0.00037154576 0)
(0.0964218843 0.000339574273 0)
(0.0963792648 0.000305120082 0)
(0.096341882 0.000268302538 0)
(0.0963103317 0.000229244861 0)
(0.0962852412 0.000188054717 0)
(0.0962671743 0.000144799238 0)
(0.0962565498 9.95486286e-05 0)
(0.096253504 5.24324131e-05 0)
(0.0962573782 3.91544216e-06 0)
(0.0962695899 -4.45952567e-05 0)
(0.0962923076 -9.37301038e-05 0)
(0.0963253476 -0.000143767604 0)
(0.0963684654 -0.000194449545 0)
(0.0964218163 -0.000245456317 0)
(0.0964854787 -0.000296455925 0)
(0.0965593887 -0.000347065468 0)
(0.0966434036 -0.000396868795 0)
(0.0967372893 -0.000445431662 0)
(0.0968406982 -0.000492302735 0)
(0.0969531692 -0.000537017481 0)
(0.0970741342 -0.000579108173 0)
(0.0972029241 -0.000618117578 0)
(0.0973387766 -0.000653614898 0)
(0.0974808463 -0.000685212141 0)
(0.0976282158 -0.000712578638 0)
(0.0977799078 -0.000735452071 0)
(0.0979348991 -0.000753645521 0)
(0.0980921372 -0.000767050809 0)
(0.098250558 -0.000775638829 0)
(0.0984091049 -0.000779457564 0)
(0.0985667477 -0.000778628253 0)
(0.0987225006 -0.000773339921 0)
(0.098875438 -0.000763842364 0)
(0.0990247076 -0.000750437739 0)
(0.0991695414 -0.00073347101 0)
(0.0993092629 -0.000713319681 0)
(0.0994432917 -0.000690383252 0)
(0.0995711459 -0.000665072852 0)
(0.0996924408 -0.000637801507 0)
(0.0998068865 -0.000608975316 0)
(0.0999142835 -0.000578985737 0)
(0.100014516 -0.000548203231 0)
(0.100107544 -0.000516971862 0)
(0.100193395 -0.000485604522 0)
(0.100272158 -0.000454379616 0)
(0.100343975 -0.000423539858 0)
(0.100409035 -0.000393292604 0)
(0.100467566 -0.000363811103 0)
(0.100519819 -0.000335236289 0)
(0.100566061 -0.000307673045 0)
(0.100606575 -0.00028118273 0)
(0.100641678 -0.000255788952 0)
(0.100671728 -0.000231497766 0)
(0.100697098 -0.000208313567 0)
(0.100718155 -0.000186235319 0)
(0.100735246 -0.000165243676 0)
(0.100748711 -0.000145307447 0)
(0.100758891 -0.000126396254 0)
(0.100766127 -0.000108482887 0)
(0.100770742 -9.15407193e-05 0)
(0.100773052 -7.55434018e-05 0)
(0.100773369 -6.04748041e-05 0)
(0.100771997 -4.63449581e-05 0)
(0.100769215 -3.32012425e-05 0)
(0.100765259 -2.11339881e-05 0)
(0.100760324 -1.03019631e-05 0)
(0.100754354 -8.53224433e-07 0)
(0.100747097 7.38987142e-06 0)
(0.10073856 1.46828498e-05 0)
(0.100728993 2.11508059e-05 0)
(0.100718581 2.68662721e-05 0)
(0.100707423 3.19077196e-05 0)
(0.100695616 3.63503369e-05 0)
(0.100683269 4.02573453e-05 0)
(0.100670485 4.36831468e-05 0)
(0.100657354 4.66760398e-05 0)
(0.100643956 4.92786756e-05 0)
(0.100630367 5.15281974e-05 0)
(0.100616655 5.34564288e-05 0)
(0.10060288 5.50903042e-05 0)
(0.100589094 5.64527186e-05 0)
(0.100575344 5.75635966e-05 0)
(0.100561669 5.84409073e-05 0)
(0.100548102 5.91014756e-05 0)
(0.100534671 5.95615051e-05 0)
(0.1005214 5.98368071e-05 0)
(0.100508309 5.99428206e-05 0)
(0.100495417 5.98945255e-05 0)
(0.10048274 5.97063123e-05 0)
(0.100470292 5.93918349e-05 0)
(0.100458085 5.89638625e-05 0)
(0.10044613 5.8434148e-05 0)
(0.100434439 5.78133291e-05 0)
(0.100423018 5.71108739e-05 0)
(0.100411877 5.63350813e-05 0)
(0.100401022 5.54931401e-05 0)
(0.100390458 5.45912422e-05 0)
(0.100380189 5.36347356e-05 0)
(0.10037022 5.26282993e-05 0)
(0.100360551 5.15761157e-05 0)
(0.100351186 5.04820205e-05 0)
(0.100342124 4.9349616e-05 0)
(0.100333366 4.81823379e-05 0)
(0.100324914 4.69834722e-05 0)
(0.100316766 4.57561277e-05 0)
(0.100308924 4.45031562e-05 0)
(0.100301389 4.32270764e-05 0)
(0.100294161 4.19297104e-05 0)
(0.10028725 4.06128492e-05 0)
(0.10028063 3.92733124e-05 0)
(0.100274421 3.79230935e-05 0)
(0.100268247 3.64883786e-05 0)
(0.100263553 3.52612973e-05 0)
(0.10025581 3.28140944e-05 0)
(0.10000175 -2.07935741e-05 0)
(0.100013117 -4.29443228e-05 0)
(0.100031798 -4.02195427e-05 0)
(0.100051465 -1.21914865e-05 0)
(0.100064606 3.79521174e-05 0)
(0.100065768 0.000102158712 0)
(0.100052081 0.000171745856 0)
(0.100022552 0.000238672186 0)
(0.0999783012 0.000296162635 0)
(0.0999220284 0.000339167168 0)
(0.0998573719 0.000364626383 0)
(0.0997883507 0.000371583404 0)
(0.099718939 0.000360912894 0)
(0.0996528057 0.000334656907 0)
(0.0995932004 0.000295421405 0)
(0.0995428918 0.000246366242 0)
(0.0995040019 0.000191804664 0)
(0.0994776356 0.000137778157 0)
(0.0994633936 9.18318632e-05 0)
(0.0994590606 6.17002253e-05 0)
(0.0994607329 5.3343731e-05 0)
(0.0994633485 6.91953695e-05 0)
(0.0994614472 0.000107424149 0)
(0.0994501331 0.000162489361 0)
(0.0994259856 0.000226467804 0)
(0.099387537 0.00029074599 0)
(0.0993353041 0.000347570554 0)
(0.0992714911 0.000391026978 0)
(0.0991994567 0.000417422848 0)
(0.099123122 0.000425225648 0)
(0.0990464847 0.000414754347 0)
(0.0989732914 0.000387827708 0)
(0.0989068256 0.000347520407 0)
(0.0988497406 0.000298068076 0)
(0.0988038713 0.000244813937 0)
(0.0987699721 0.000194051761 0)
(0.0987474356 0.00015257729 0)
(0.0987341693 0.000126827504 0)
(0.0987267 0.000121731443 0)
(0.0987205073 0.000139546335 0)
(0.0987106469 0.000179071484 0)
(0.0986926308 0.000235591255 0)
(0.0986633129 0.000301708002 0)
(0.0986214674 0.000368939176 0)
(0.0985678976 0.000429629604 0)
(0.0985050533 0.000478582834 0)
(0.0984362784 0.000513914944 0)
(0.0983649275 0.000536915837 0)
(0.09829362 0.000551056268 0)
(0.0982238325 0.000560565093 0)
(0.0981558952 0.00056910419 0)
(0.0980893075 0.000578953826 0)
(0.0980231945 0.000590857795 0)
(0.0979567163 0.000604399776 0)
(0.0978893098 0.000618615049 0)
(0.0978207397 0.00063253742 0)
(0.0977510165 0.00064550347 0)
(0.0976802683 0.000657196105 0)
(0.0976086362 0.000667522771 0)
(0.0975362271 0.000676454029 0)
(0.0974631146 0.000683910952 0)
(0.0973893664 0.000689728299 0)
(0.0973150716 0.000693673681 0)
(0.0972403565 0.000695486833 0)
(0.097165388 0.0006949123 0)
(0.09709037 0.000691716201 0)
(0.0970155421 0.000685688705 0)
(0.0969411778 0.000676640589 0)
(0.0968675829 0.000664401233 0)
(0.0967950955 0.000648819736 0)
(0.0967240851 0.00062976782 0)
(0.0966549526 0.000607142886 0)
(0.0965881284 0.00058087018 0)
(0.096524071 0.00055090374 0)
(0.0964632658 0.000517226263 0)
(0.0964062228 0.000479848035 0)
(0.0963534751 0.000438805146 0)
(0.0963055763 0.000394156745 0)
(0.0962630957 0.000345980759 0)
(0.0962266123 0.00029436701 0)
(0.0961966882 0.000239403174 0)
(0.0961738437 0.000181173372 0)
(0.0961585788 0.000119825524 0)
(0.0961515413 5.56120668e-05 0)
(0.0961536871 -1.1099536e-05 0)
(0.0961652913 -7.92058656e-05 0)
(0.0961865565 -0.000148729424 0)
(0.0962182272 -0.000219599713 0)
(0.0962606513 -0.000291406062 0)
(0.0963140075 -0.000363679631 0)
(0.0963784212 -0.000435923406 0)
(0.0964539181 -0.00050757452 0)
(0.096540409 -0.000578014281 0)
(0.0966376883 -0.000646588172 0)
(0.0967454239 -0.000712618217 0)
(0.0968631528 -0.000775417491 0)
(0.096990283 -0.000834308098 0)
(0.0971260976 -0.000888639687 0)
(0.0972697619 -0.000937807814 0)
(0.0974203339 -0.00098127182 0)
(0.097576778 -0.00101857126 0)
(0.0977379805 -0.00104933993 0)
(0.0979027699 -0.00107331688 0)
(0.0980699379 -0.0010903537 0)
(0.0982382636 -0.00110041794 0)
(0.0984065378 -0.00110359219 0)
(0.0985735861 -0.00110006922 0)
(0.0987382915 -0.0010901435 0)
(0.0988996132 -0.00107419964 0)
(0.0990566027 -0.00105269859 0)
(0.099208416 -0.00102616225 0)
(0.0993543215 -0.000995157381 0)
(0.0994937051 -0.000960279471 0)
(0.0996260705 -0.000922137198 0)
(0.0997510378 -0.000881338067 0)
(0.0998683381 -0.000838475591 0)
(0.0999778068 -0.000794118266 0)
(0.100079375 -0.000748800622 0)
(0.100173061 -0.000703016058 0)
(0.100258957 -0.000657211209 0)
(0.100337223 -0.000611782502 0)
(0.100408073 -0.000567074814 0)
(0.100471767 -0.000523381258 0)
(0.100528598 -0.000480943906 0)
(0.100578891 -0.000439955592 0)
(0.100622996 -0.000400559546 0)
(0.100661283 -0.000362847738 0)
(0.100694129 -0.000326867326 0)
(0.100721908 -0.000292636338 0)
(0.100745001 -0.000260156006 0)
(0.100763799 -0.000229419626 0)
(0.100778682 -0.00020041609 0)
(0.100789999 -0.000173116796 0)
(0.10079809 -0.000147477075 0)
(0.100803286 -0.000123449487 0)
(0.100805913 -0.000101002251 0)
(0.100806274 -8.01095195e-05 0)
(0.10080464 -6.07420307e-05 0)
(0.100801241 -4.28737213e-05 0)
(0.100796268 -2.64908423e-05 0)
(0.100789826 -1.15454285e-05 0)
(0.100782041 2.07061257e-06 0)
(0.100773244 1.42273646e-05 0)
(0.100763645 2.49327214e-05 0)
(0.100753192 3.43991646e-05 0)
(0.100741925 4.27777587e-05 0)
(0.100729977 5.01510501e-05 0)
(0.100717451 5.66074592e-05 0)
(0.100704426 6.22400128e-05 0)
(0.100690989 6.71302541e-05 0)
(0.100677226 7.13490071e-05 0)
(0.100663213 7.49600785e-05 0)
(0.100649019 7.8021229e-05 0)
(0.100634709 8.05845392e-05 0)
(0.100620339 8.26967681e-05 0)
(0.10060596 8.43997263e-05 0)
(0.100591619 8.57308301e-05 0)
(0.100577355 8.67237042e-05 0)
(0.100563205 8.74087047e-05 0)
(0.100549197 8.78133983e-05 0)
(0.10053536 8.79629977e-05 0)
(0.100521716 8.78807083e-05 0)
(0.100508285 8.7587983e-05 0)
(0.100495082 8.71047066e-05 0)
(0.100482124 8.64493267e-05 0)
(0.100469422 8.5638934e-05 0)
(0.100456986 8.46893077e-05 0)
(0.100444827 8.361494e-05 0)
(0.100432951 8.24290585e-05 0)
(0.100421365 8.11436541e-05 0)
(0.100410076 7.97695233e-05 0)
(0.100399086 7.83163283e-05 0)
(0.100388401 7.67926752e-05 0)
(0.100378023 7.52062047e-05 0)
(0.100367954 7.3563692e-05 0)
(0.100358195 7.18711461e-05 0)
(0.100348747 7.01338987e-05 0)
(0.10033961 6.83566792e-05 0)
(0.100330785 6.65436659e-05 0)
(0.100322271 6.46985073e-05 0)
(0.100314069 6.28243125e-05 0)
(0.100306177 6.0923585e-05 0)
(0.100298596 5.89981785e-05 0)
(0.100291325 5.70488106e-05 0)
(0.100284372 5.50762183e-05 0)
(0.100277705 5.30737597e-05 0)
(0.100271442 5.10590698e-05 0)
(0.100265169 4.89233324e-05 0)
(0.100260388 4.7110666e-05 0)
(0.100252193 4.35810188e-05 0)
(0.100001882 -2.73917299e-05 0)
(0.100013033 -5.86091879e-05 0)
(0.100030599 -6.03681114e-05 0)
(0.100048824 -3.27433546e-05 0)
(0.100060839 2.0116673e-05 0)
(0.100061159 9.07608947e-05 0)
(0.100046997 0.000169245724 0)
(0.100017683 0.000245571268 0)
(0.0999742215 0.000311538143 0)
(0.0999190786 0.000361266229 0)
(0.0998556604 0.000391257306 0)
(0.0997877861 0.000400378063 0)
(0.0997192859 0.00038953228 0)
(0.0996537368 0.000360925105 0)
(0.0995943262 0.000317384442 0)
(0.0995437793 0.000262355389 0)
(0.0995042027 0.000200605911 0)
(0.0994767469 0.000138916893 0)
(0.0994611664 8.58529002e-05 0)
(0.0994554761 5.02852016e-05 0)
(0.0994558846 3.91598444e-05 0)
(0.0994572298 5.55447206e-05 0)
(0.0994540446 9.77936177e-05 0)
(0.0994417075 0.000159929803 0)
(0.0994171134 0.00023306807 0)
(0.0993789463 0.000307346219 0)
(0.099327682 0.00037371359 0)
(0.0992653325 0.000425142348 0)
(0.0991949953 0.000457161717 0)
(0.0991203447 0.000467840928 0)
(0.099045193 0.000457441824 0)
(0.098973167 0.000427982087 0)
(0.0989074765 0.000382905144 0)
(0.0988507294 0.000326937106 0)
(0.0988047378 0.000266050104 0)
(0.0987702871 0.000207324124 0)
(0.0987469021 0.000158482316 0)
(0.0987326782 0.000126954414 0)
(0.0987242853 0.000118556557 0)
(0.0987173305 0.00013615923 0)
(0.0987070856 0.000178736727 0)
(0.0986893152 0.000241181872 0)
(0.0986609995 0.000315136471 0)
(0.098620834 0.000390749628 0)
(0.0985693688 0.0004589063 0)
(0.0985087161 0.000513243187 0)
(0.0984419028 0.000551307344 0)
(0.0983720688 0.000574519515 0)
(0.0983017574 0.000587047099 0)
(0.098232495 0.000594080035 0)
(0.09816474 0.00060017004 0)
(0.0980981384 0.000608175779 0)
(0.0980319308 0.000619032229 0)
(0.0979653361 0.000632203831 0)
(0.0978977945 0.000646454735 0)
(0.0978290377 0.000660550818 0)
(0.0977590298 0.00067365719 0)
(0.0976878573 0.000685399421 0)
(0.0976156326 0.000695706721 0)
(0.0975424461 0.000704599381 0)
(0.0974683629 0.000712037634 0)
(0.097393445 0.000717869589 0)
(0.0973177765 0.000721853798 0)
(0.0972414804 0.000723709561 0)
(0.0971647261 0.000723159094 0)
(0.0970877276 0.000719948632 0)
(0.0970107378 0.000713850835 0)
(0.0969340447 0.000704659279 0)
(0.0968579708 0.000692184494 0)
(0.0967828724 0.00067625421 0)
(0.0967091393 0.000656716358 0)
(0.0966371932 0.000633442762 0)
(0.0965674854 0.000606332154 0)
(0.0965004954 0.000575312179 0)
(0.0964367291 0.000540340485 0)
(0.0963767169 0.000501405152 0)
(0.0963210131 0.000458524538 0)
(0.0962701933 0.000411746495 0)
(0.0962248524 0.000361147465 0)
(0.0961855994 0.000306831406 0)
(0.0961530583 0.000248930545 0)
(0.0961278649 0.000187623427 0)
(0.0961106208 0.000123138711 0)
(0.0961016627 5.57355517e-05 0)
(0.0961012119 -1.42802587e-05 0)
(0.0961101765 -8.67705375e-05 0)
(0.0961295579 -0.000161259981 0)
(0.0961597279 -0.000237418027 0)
(0.096200958 -0.000314852599 0)
(0.096253542 -0.000393059594 0)
(0.0963176846 -0.000471461964 0)
(0.096393465 -0.000549419672 0)
(0.0964808442 -0.000626234907 0)
(0.0965796577 -0.000701165065 0)
(0.0966896012 -0.000773435949 0)
(0.0968102244 -0.000842256663 0)
(0.0969409295 -0.00090683874 0)
(0.0970809726 -0.000966418461 0)
(0.0972294698 -0.00102028073 0)
(0.0973854085 -0.00106778304 0)
(0.0975476627 -0.00110837761 0)
(0.0977150139 -0.00114162999 0)
(0.0978861743 -0.00116723296 0)
(0.0980598143 -0.00118501517 0)
(0.098234591 -0.00119494439 0)
(0.0984091768 -0.00119712552 0)
(0.0985822874 -0.00119179382 0)
(0.098752707 -0.00117930392 0)
(0.0989193103 -0.00116011529 0)
(0.0990810806 -0.00113477498 0)
(0.0992371227 -0.0011038986 0)
(0.0993866719 -0.00106815047 0)
(0.0995290979 -0.00102822395 0)
(0.0996639044 -0.000984822765 0)
(0.0997907256 -0.000938643912 0)
(0.0999093192 -0.000890362798 0)
(0.100019557 -0.000840620728 0)
(0.100121413 -0.000790015002 0)
(0.100214955 -0.000739091547 0)
(0.100300325 -0.000688339874 0)
(0.100377735 -0.000638190375 0)
(0.100447451 -0.000589013519 0)
(0.100509785 -0.000541120519 0)
(0.100565083 -0.000494765147 0)
(0.100613714 -0.000450146446 0)
(0.100656063 -0.000407414108 0)
(0.100692527 -0.000366675762 0)
(0.100723509 -0.000328001654 0)
(0.100749421 -0.000291427509 0)
(0.100770665 -0.000256958472 0)
(0.100787622 -0.000224579457 0)
(0.100800666 -0.000194265841 0)
(0.100810174 -0.00016597611 0)
(0.100816512 -0.000139650007 0)
(0.100820002 -0.000115217369 0)
(0.100820945 -9.25914196e-05 0)
(0.100819654 -7.16850754e-05 0)
(0.100816439 -5.24166716e-05 0)
(0.100811586 -3.46919779e-05 0)
(0.100805401 -1.84561662e-05 0)
(0.10079823 -3.76190096e-06 0)
(0.100790063 9.47862105e-06 0)
(0.100780728 2.14661167e-05 0)
(0.100770363 3.21920987e-05 0)
(0.100759139 4.17020936e-05 0)
(0.100747155 5.01133951e-05 0)
(0.100734525 5.75193063e-05 0)
(0.100721358 6.39997646e-05 0)
(0.100707743 6.96377216e-05 0)
(0.100693765 7.45125077e-05 0)
(0.100679505 7.86959501e-05 0)
(0.100665038 8.22533425e-05 0)
(0.100650432 8.52440168e-05 0)
(0.100635748 8.77214507e-05 0)
(0.100621044 8.97335497e-05 0)
(0.100606368 9.13231171e-05 0)
(0.100591765 9.25285254e-05 0)
(0.10057727 9.3384448e-05 0)
(0.100562917 9.3922484e-05 0)
(0.100548733 9.41716606e-05 0)
(0.10053474 9.41588248e-05 0)
(0.100520959 9.39089054e-05 0)
(0.100507406 9.34450616e-05 0)
(0.100494097 9.27887635e-05 0)
(0.100481042 9.19598431e-05 0)
(0.100468255 9.09765277e-05 0)
(0.100455743 8.98554684e-05 0)
(0.100443517 8.86117716e-05 0)
(0.100431582 8.7259044e-05 0)
(0.100419944 8.5809455e-05 0)
(0.10040861 8.42738175e-05 0)
(0.100397583 8.26616909e-05 0)
(0.100386865 8.09815003e-05 0)
(0.10037646 7.92406657e-05 0)
(0.100366368 7.74457345e-05 0)
(0.100356591 7.56025054e-05 0)
(0.100347128 7.37161322e-05 0)
(0.100337979 7.17912027e-05 0)
(0.100329143 6.98317854e-05 0)
(0.10032062 6.78414406e-05 0)
(0.100312409 6.58232009e-05 0)
(0.100304508 6.37795012e-05 0)
(0.100296918 6.17121597e-05 0)
(0.100289635 5.96218996e-05 0)
(0.100282667 5.75098554e-05 0)
(0.100275982 5.53695478e-05 0)
(0.100269696 5.32229355e-05 0)
(0.100263411 5.09559926e-05 0)
(0.100258617 4.90543367e-05 0)
(0.100250598 4.53787893e-05 0)
(0.100001917 -3.55419895e-05 0)
(0.100014083 -7.70616124e-05 0)
(0.100033864 -8.08352874e-05 0)
(0.100054449 -4.65625109e-05 0)
(0.100068348 2.08791196e-05 0)
(0.100070413 0.00011181869 0)
(0.100057354 0.000213135551 0)
(0.10002788 0.000311876442 0)
(0.0999830083 0.000397415464 0)
(0.0999253628 0.000462150689 0)
(0.0998585996 0.000501570325 0)
(0.099786886 0.000514174044 0)
(0.099714457 0.000501043757 0)
(0.0996453124 0.000464927031 0)
(0.099583043 0.000409383916 0)
(0.0995307118 0.000338775496 0)
(0.099490648 0.000259156381 0)
(0.0994640562 0.000179173141 0)
(0.099450525 0.00010981099 0)
(0.099447709 6.25341937e-05 0)
(0.0994515044 4.64565633e-05 0)
(0.0994566953 6.57559866e-05 0)
(0.0994576311 0.000118390889 0)
(0.099449052 0.000196673882 0)
(0.0994271128 0.000289198138 0)
(0.0993900261 0.000383326234 0)
(0.0993381409 0.000467487237 0)
(0.09927363 0.00053274034 0)
(0.0991999598 0.000573443849 0)
(0.099121301 0.000587185568 0)
(0.099042017 0.00057428721 0)
(0.0989662847 0.000537219507 0)
(0.0988978241 0.000480188107 0)
(0.0988396704 0.000408987267 0)
(0.0987939264 0.000331013382 0)
(0.0987614693 0.000255156323 0)
(0.0987416606 0.000191257995 0)
(0.0987322224 0.000148962156 0)
(0.0987294265 0.000135969548 0)
(0.0987285073 0.000156166878 0)
(0.0987242415 0.000208303089 0)
(0.0987117773 0.000285782612 0)
(0.0986875551 0.000377835438 0)
(0.0986499789 0.000471855778 0)
(0.0985996099 0.000556263028 0)
(0.0985388243 0.000623023863 0)
(0.0984710527 0.00066907595 0)
(0.0983998568 0.00069625995 0)
(0.0983281238 0.000709891067 0)
(0.0982575938 0.000716583042 0)
(0.0981888011 0.000722149524 0)
(0.0981213573 0.000730263975 0)
(0.0980544044 0.000742157073 0)
(0.0979870442 0.00075718093 0)
(0.0979186135 0.000773781207 0)
(0.0978487679 0.000790390119 0)
(0.0977774232 0.000805938239 0)
(0.0977046359 0.000819940596 0)
(0.0976304981 0.000832303495 0)
(0.0975550839 0.00084305654 0)
(0.0974784439 0.000852159295 0)
(0.0974006289 0.000859432352 0)
(0.097321717 0.000864583446 0)
(0.0972418311 0.00086726993 0)
(0.0971611452 0.000867151008 0)
(0.0970798814 0.000863911691 0)
(0.0969983059 0.000857265549 0)
(0.0969167259 0.000846949636 0)
(0.0968354878 0.00083272057 0)
(0.0967549768 0.000814355038 0)
(0.0966756154 0.000791653591 0)
(0.0965978618 0.000764445041 0)
(0.0965222082 0.00073258957 0)
(0.096449178 0.000695980165 0)
(0.0963793229 0.000654542744 0)
(0.0963132202 0.00060823553 0)
(0.0962514691 0.000557048172 0)
(0.0961946872 0.000501000969 0)
(0.0961435066 0.000440144238 0)
(0.0960985677 0.000374558292 0)
(0.096060515 0.000304354346 0)
(0.0960299767 0.000229671388 0)
(0.0960075517 0.000150678251 0)
(0.0959940068 6.76195552e-05 0)
(0.0959902055 -1.9044747e-05 0)
(0.0959966417 -0.000108719937 0)
(0.0960137324 -0.000201041542 0)
(0.0960421003 -0.000295572751 0)
(0.0960822657 -0.000391743534 0)
(0.0961346022 -0.000488902022 0)
(0.0961993852 -0.00058632197 0)
(0.0962767793 -0.000683193481 0)
(0.0963668155 -0.000778630127 0)
(0.0964693763 -0.000871685881 0)
(0.0965841825 -0.000961374365 0)
(0.0967107826 -0.00104669116 0)
(0.0968485474 -0.00112663967 0)
(0.0969966709 -0.00120025917 0)
(0.0971541765 -0.00126665336 0)
(0.0973199305 -0.00132501876 0)
(0.0974926613 -0.00137467125 0)
(0.0976709838 -0.0014150693 0)
(0.0978534294 -0.00144583232 0)
(0.0980384796 -0.00146675308 0)
(0.0982246005 -0.00147780303 0)
(0.0984102794 -0.00147913054 0)
(0.0985940584 -0.00147105213 0)
(0.0987745656 -0.00145403759 0)
(0.0989505417 -0.00142869012 0)
(0.099120861 -0.00139572289 0)
(0.0992845462 -0.00135593341 0)
(0.0994407778 -0.00131017728 0)
(0.0995888969 -0.00125934244 0)
(0.0997284033 -0.00120432499 0)
(0.0998589492 -0.00114600757 0)
(0.0999803288 -0.00108524066 0)
(0.100092466 -0.00102282725 0)
(0.100195401 -0.000959510908 0)
(0.100289273 -0.000895967167 0)
(0.100374307 -0.000832797806 0)
(0.100450796 -0.000770528023 0)
(0.100519091 -0.000709606301 0)
(0.100579583 -0.000650406473 0)
(0.100632695 -0.000593231286 0)
(0.100678867 -0.00053831694 0)
(0.100718556 -0.000485837991 0)
(0.100752221 -0.000435912516 0)
(0.100780321 -0.000388609192 0)
(0.100803306 -0.000343956505 0)
(0.100821613 -0.000301951902 0)
(0.100835669 -0.000262562589 0)
(0.100845881 -0.000225724146 0)
(0.100852644 -0.000191356088 0)
(0.100856327 -0.000159371931 0)
(0.100857293 -0.00012967883 0)
(0.100855888 -0.000102170006 0)
(0.100852408 -7.67433603e-05 0)
(0.100847132 -5.33267348e-05 0)
(0.100840262 -3.18923005e-05 0)
(0.100831817 -1.23735132e-05 0)
(0.100821938 5.33818473e-06 0)
(0.100811044 2.11671983e-05 0)
(0.100799357 3.52512352e-05 0)
(0.100786909 4.77710803e-05 0)
(0.100773795 5.88455354e-05 0)
(0.100760109 6.85987303e-05 0)
(0.100745941 7.7149488e-05 0)
(0.100731381 8.4601404e-05 0)
(0.100716511 9.10517556e-05 0)
(0.100701402 9.65925368e-05 0)
(0.100686124 0.00010130813 0)
(0.100670739 0.000105275462 0)
(0.100655305 0.000108564937 0)
(0.100639869 0.000111241017 0)
(0.100624478 0.00011336251 0)
(0.100609172 0.000114982764 0)
(0.100593987 0.000116149974 0)
(0.100578956 0.000116907632 0)
(0.100564108 0.000117295016 0)
(0.100549468 0.000117347661 0)
(0.100535057 0.000117097827 0)
(0.100520895 0.000116574927 0)
(0.100506996 0.000115805876 0)
(0.100493374 0.000114815363 0)
(0.10048004 0.000113626064 0)
(0.100467002 0.000112258791 0)
(0.100454267 0.00011073262 0)
(0.100441841 0.000109064978 0)
(0.100429729 0.000107271737 0)
(0.100417933 0.000105367287 0)
(0.100406457 0.000103364621 0)
(0.100395301 0.000101275412 0)
(0.100384468 9.91101042e-05 0)
(0.100373958 9.68779923e-05 0)
(0.100363771 9.45873092e-05 0)
(0.100353906 9.22453054e-05 0)
(0.100344364 8.9858324e-05 0)
(0.100335144 8.74318689e-05 0)
(0.100326243 8.49706634e-05 0)
(0.100317662 8.24786913e-05 0)
(0.100309398 7.99592226e-05 0)
(0.10030145 7.74147942e-05 0)
(0.100293816 7.48472725e-05 0)
(0.100286492 7.22573619e-05 0)
(0.100279485 6.96465797e-05 0)
(0.100272759 6.70074988e-05 0)
(0.100266433 6.43680306e-05 0)
(0.100260081 6.15895091e-05 0)
(0.100255232 5.92671042e-05 0)
(0.100246911 5.47792503e-05 0)
(0.100001919 -4.374659e-05 0)
(0.100013794 -9.67824976e-05 0)
(0.100033142 -0.000105886845 0)
(0.100053888 -7.02703479e-05 0)
(0.100068616 5.24170138e-06 0)
(0.100071063 0.000109354713 0)
(0.100057838 0.000226538685 0)
(0.100028232 0.000341273579 0)
(0.0999832233 0.000440983912 0)
(0.0999253531 0.000516833116 0)
(0.0998582305 0.00056360358 0)
(0.0997859816 0.000579479188 0)
(0.0997128203 0.000565546118 0)
(0.099642749 0.000524789349 0)
(0.0995793834 0.000461156653 0)
(0.0995258348 0.000379564949 0)
(0.0994845155 0.000286939051 0)
(0.0994567696 0.00019325957 0)
(0.0994423968 0.000111295818 0)
(0.0994392959 5.44875894e-05 0)
(0.0994433943 3.36417413e-05 0)
(0.0994490348 5.38751042e-05 0)
(0.0994501617 0.000113139229 0)
(0.0994416255 0.000202729864 0)
(0.0994198498 0.000309481409 0)
(0.0993831577 0.000418686551 0)
(0.0993318529 0.000516790089 0)
(0.0992679864 0.000593246377 0)
(0.0991948925 0.00064134403 0)
(0.0991166472 0.000658151722 0)
(0.0990375726 0.000643939066 0)
(0.0989618486 0.000601475619 0)
(0.0988932242 0.00053553009 0)
(0.0988347827 0.000452699132 0)
(0.0987887041 0.000361439821 0)
(0.0987560062 0.000271982928 0)
(0.0987363197 0.000195709973 0)
(0.0987276509 0.000143765998 0)
(0.0987262844 0.000125155735 0)
(0.0987271861 0.00014464001 0)
(0.0987248639 0.000201091083 0)
(0.0987143508 0.000287209057 0)
(0.0986920649 0.000390731503 0)
(0.0986563877 0.000496998038 0)
(0.0986078093 0.000592308813 0)
(0.0985486042 0.000667008454 0)
(0.0984821313 0.000717292807 0)
(0.0984119442 0.000745226697 0)
(0.0983409756 0.000757101169 0)
(0.0982710324 0.000760845467 0)
(0.0982027056 0.000763488071 0)
(0.0981356353 0.000769506932 0)
(0.0980689597 0.000780429142 0)
(0.098001753 0.000795491277 0)
(0.0979333134 0.000812811762 0)
(0.0978632578 0.000830481586 0)
(0.0977914679 0.000847197876 0)
(0.0977179725 0.000862377686 0)
(0.0976428413 0.000875925782 0)
(0.0975661289 0.000887905714 0)
(0.0974878697 0.000898299258 0)
(0.0974081014 0.000906917924 0)
(0.0973268934 0.000913432284 0)
(0.0972443654 0.00091744743 0)
(0.0971606936 0.000918567352 0)
(0.0970761095 0.00091642615 0)
(0.096990895 0.000910692101 0)
(0.096905379 0.000901060443 0)
(0.0968199349 0.00088724733 0)
(0.0967349787 0.000868989519 0)
(0.0966509667 0.000846048371 0)
(0.096568392 0.00081821487 0)
(0.0964877813 0.000785313459 0)
(0.0964096906 0.000747204168 0)
(0.0963347024 0.000703783453 0)
(0.0962634232 0.00065498429 0)
(0.0961964811 0.000600776024 0)
(0.0961345244 0.000541164219 0)
(0.0960782193 0.000476190804 0)
(0.0960282473 0.000405935435 0)
(0.0959853025 0.000330519358 0)
(0.0959500895 0.000250110297 0)
(0.0959233266 0.000164941028 0)
(0.0959056634 7.5322926e-05 0)
(0.095897688 -1.84845577e-05 0)
(0.0959001714 -0.000116201111 0)
(0.0959139348 -0.000217337459 0)
(0.0959396091 -0.000321349591 0)
(0.0959777376 -0.000427628259 0)
(0.0960288088 -0.000535450368 0)
(0.0960932144 -0.000643980668 0)
(0.0961712171 -0.000752281879 0)
(0.0962629339 -0.000859322446 0)
(0.0963683167 -0.000963990115 0)
(0.096487133 -0.00106511205 0)
(0.0966189502 -0.00116148074 0)
(0.0967631255 -0.00125188577 0)
(0.0969188029 -0.00133515026 0)
(0.0970849181 -0.00141016958 0)
(0.0972602117 -0.00147595011 0)
(0.0974432523 -0.00153164536 0)
(0.0976324665 -0.00157658691 0)
(0.0978261767 -0.00161030829 0)
(0.0980226437 -0.00163256032 0)
(0.0982201113 -0.0016433172 0)
(0.0984168516 -0.00164277317 0)
(0.0986112075 -0.00163133028 0)
(0.0988016306 -0.00160957832 0)
(0.0989867132 -0.00157826845 0)
(0.0991652127 -0.00153828246 0)
(0.0993360686 -0.00149059943 0)
(0.0994984109 -0.00143626195 0)
(0.099651562 -0.00137634351 0)
(0.0997950316 -0.00131191837 0)
(0.0999285067 -0.00124403506 0)
(0.100051837 -0.0011736942 0)
(0.100165019 -0.00110183078 0)
(0.100268174 -0.00102930099 0)
(0.100361534 -0.00095687348 0)
(0.100445417 -0.000885224432 0)
(0.100520212 -0.000814936096 0)
(0.100586361 -0.000746498176 0)
(0.100644345 -0.00068031134 0)
(0.100694669 -0.000616692389 0)
(0.100737853 -0.000555880753 0)
(0.100774418 -0.000498046199 0)
(0.100804882 -0.000443297367 0)
(0.100829754 -0.000391690175 0)
(0.100849526 -0.000343235372 0)
(0.100864674 -0.000297905709 0)
(0.100875649 -0.0002556434 0)
(0.10088288 -0.000216367913 0)
(0.100886769 -0.00017998326 0)
(0.100887697 -0.000146382169 0)
(0.10088601 -0.000115448516 0)
(0.100882018 -8.70706773e-05 0)
(0.100875995 -6.1132359e-05 0)
(0.100868164 -3.75035411e-05 0)
(0.100858806 -1.60471361e-05 0)
(0.10084832 3.37342421e-06 0)
(0.10083689 2.09368667e-05 0)
(0.100824538 3.67819771e-05 0)
(0.100811387 5.09488924e-05 0)
(0.100797553 6.35412687e-05 0)
(0.10078314 7.4669657e-05 0)
(0.100768248 8.44440881e-05 0)
(0.100752967 9.29748977e-05 0)
(0.100737379 0.000100366061 0)
(0.100721562 0.000106715649 0)
(0.100705586 0.000112116733 0)
(0.100689513 0.000116656168 0)
(0.100673402 0.000120414001 0)
(0.100657309 0.000123463699 0)
(0.10064128 0.000125872552 0)
(0.100625359 0.000127702129 0)
(0.100609584 0.00012900874 0)
(0.100593986 0.000129843858 0)
(0.100578593 0.000130254483 0)
(0.100563427 0.000130283486 0)
(0.100548508 0.000129969914 0)
(0.100533852 0.000129349299 0)