/*--------------------------------*- C++ -*----------------------------------*\
| =========                 |                                                 |
| \\      /  F ield         | OpenFOAM: The Open Source CFD Toolbox           |
|  \\    /   O peration     | Version:  v2012                                 |
|   \\  /    A nd           | Website:  www.openfoam.com                      |
|    \\/     M anipulation  |                                                 |
\*---------------------------------------------------------------------------*/
FoamFile
{
    version     2.0;
    format      ascii;
    class       volVectorField;
    location    "2.99";
    object      HbyA;
}
// * * * * * * * * * * * * * * * * * * * * * * * * * * * * * * * * * * * * * //

dimensions      [0 1 -1 0 0 0 0];


internalField   nonuniform List<vector> 
28416
(
(0.100000306 -5.32344469e-06 0)
(0.100004746 -1.93040529e-05 0)
(0.100015826 -3.79948035e-05 0)
(0.100035825 -6.22472491e-05 0)
(0.10006643 -9.04776343e-05 0)
(0.100108378 -0.00011866306 0)
(0.100160929 -0.000141294597 0)
(0.100221453 -0.000152877224 0)
(0.100285562 -0.000149699783 0)
(0.100347889 -0.00013096497 0)
(0.100403149 -9.86984553e-05 0)
(0.100446912 -5.67581061e-05 0)
(0.100475839 -9.54085835e-06 0)
(0.100490432 3.9458166e-05 0)
(0.100494009 8.53691279e-05 0)
(0.100488056 0.000122878298 0)
(0.100473644 0.000149309565 0)
(0.100453115 0.000163717112 0)
(0.100429015 0.000166368132 0)
(0.100403669 0.000158563169 0)
(0.10037917 0.00014231946 0)
(0.100357151 0.000120237847 0)
(0.100338562 9.56805177e-05 0)
(0.100323937 7.29698421e-05 0)
(0.100313223 5.67456344e-05 0)
(0.100304977 5.12113129e-05 0)
(0.100296083 5.94066259e-05 0)
(0.100282207 8.26375823e-05 0)
(0.10025879 0.000120104298 0)
(0.100221979 0.00016888554 0)
(0.100169168 0.000224470046 0)
(0.100099245 0.000281653269 0)
(0.100012595 0.000335438514 0)
(0.0999108475 0.000381709465 0)
(0.0997964806 0.000417607091 0)
(0.099672398 0.000441647035 0)
(0.0995415881 0.000453663592 0)
(0.0994068872 0.000454671113 0)
(0.09927082 0.000446706003 0)
(0.0991354671 0.000432671077 0)
(0.0990023055 0.000416162024 0)
(0.0988720095 0.00040122559 0)
(0.0987442556 0.000391995905 0)
(0.0986176254 0.000392188876 0)
(0.0984897066 0.000404499878 0)
(0.0983574485 0.000430024875 0)
(0.098217729 0.000467877514 0)
(0.098068002 0.000515172299 0)
(0.0979068443 0.000567467285 0)
(0.0977342485 0.000619618575 0)
(0.0975515864 0.000666842232 0)
(0.0973612708 0.000705679016 0)
(0.0971662263 0.000734569567 0)
(0.0969693284 0.000753878835 0)
(0.0967729598 0.00076540657 0)
(0.096578782 0.000771598944 0)
(0.0963877408 0.000774757358 0)
(0.0962002491 0.000776496241 0)
(0.0960164467 0.000777565093 0)
(0.0958364342 0.000777993273 0)
(0.095660415 0.000777409428 0)
(0.0954887298 0.000775365827 0)
(0.0953218143 0.000771549959 0)
(0.095160125 0.000765849585 0)
(0.0950040758 0.000758307425 0)
(0.0948540036 0.000749031614 0)
(0.0947101654 0.000738118593 0)
(0.0945727523 0.000725614995 0)
(0.0944419091 0.000711516102 0)
(0.0943177494 0.000695783528 0)
(0.0942003653 0.000678364771 0)
(0.0940898326 0.000659205371 0)
(0.0939862158 0.00063825288 0)
(0.0938895741 0.000615456402 0)
(0.0937999702 0.000590765622 0)
(0.0937174842 0.000564131361 0)
(0.0936422314 0.000535505079 0)
(0.0935744216 0.000504836434 0)
(0.0935143765 0.000472030234 0)
(0.093462284 0.00043691931 0)
(0.093418251 0.000399391216 0)
(0.093382492 0.000359249117 0)
(0.0933551565 0.000316249682 0)
(0.0933362841 0.000270174385 0)
(0.0933258448 0.000220842433 0)
(0.0933236531 0.000168247798 0)
(0.0933295108 0.0001127103 0)
(0.0933427676 5.48073187e-05 0)
(0.0933626106 -3.37224461e-06 0)
(0.0933924101 -6.00205092e-05 0)
(0.0934361324 -0.000116902352 0)
(0.093493295 -0.000175118333 0)
(0.0935630057 -0.000234569252 0)
(0.0936455518 -0.000295070435 0)
(0.093741271 -0.00035648216 0)
(0.0938501299 -0.000418500389 0)
(0.0939720085 -0.000480676139 0)
(0.0941067776 -0.000542493714 0)
(0.0942542017 -0.000603390332 0)
(0.0944138981 -0.000662757712 0)
(0.0945853407 -0.00071995213 0)
(0.0947678558 -0.000774308583 0)
(0.0949606175 -0.000825157358 0)
(0.0951626515 -0.000871844728 0)
(0.0953728457 -0.00091375664 0)
(0.0955899646 -0.000950342509 0)
(0.0958126668 -0.000981136627 0)
(0.0960395269 -0.00100577546 0)
(0.096269062 -0.00102400983 0)
(0.09649976 -0.00103571171 0)
(0.0967301112 -0.00104087591 0)
(0.096958639 -0.00103961699 0)
(0.0971839308 -0.00103216216 0)
(0.0974046647 -0.00101884052 0)
(0.0976196333 -0.00100006939 0)
(0.0978277615 -0.000976338392 0)
(0.0980281193 -0.000948192055 0)
(0.0982199297 -0.000916211883 0)
(0.0984025703 -0.000880998748 0)
(0.0985755714 -0.000843156343 0)
(0.09873861 -0.000803276387 0)
(0.0988915 -0.000761925968 0)
(0.0990341807 -0.000719637272 0)
(0.099166704 -0.000676899731 0)
(0.0992892195 -0.000634154535 0)
(0.0994019609 -0.000591791299 0)
(0.099505231 -0.000550146662 0)
(0.099599389 -0.00050950463 0)
(0.0996848375 -0.000470098282 0)
(0.0997620106 -0.000432112415 0)
(0.0998313645 -0.000395686886 0)
(0.0998933683 -0.000360920574 0)
(0.0999484971 -0.000327875864 0)
(0.0999972253 -0.000296583403 0)
(0.100040021 -0.000267046596 0)
(0.100077344 -0.000239245813 0)
(0.100109639 -0.000213142764 0)
(0.100137338 -0.000188685103 0)
(0.100160858 -0.000165810667 0)
(0.100180596 -0.000144451313 0)
(0.100196934 -0.000124537169 0)
(0.100210233 -0.000106001831 0)
(0.100220835 -8.87881187e-05 0)
(0.100229055 -7.28530548e-05 0)
(0.10023517 -5.81689642e-05 0)
(0.100239413 -4.47160532e-05 0)
(0.100241959 -3.24656342e-05 0)
(0.100242951 -2.13645902e-05 0)
(0.100242489 -1.1330074e-05 0)
(0.100240671 -2.21375482e-06 0)
(0.100237814 6.13082256e-06 0)
(0.100234203 1.36228231e-05 0)
(0.100229829 2.02662004e-05 0)
(0.100224701 2.61401021e-05 0)
(0.10021891 3.13146093e-05 0)
(0.100212534 3.58546237e-05 0)
(0.10020564 3.98268676e-05 0)
(0.100198301 4.32934209e-05 0)
(0.100190591 4.63086866e-05 0)
(0.100182578 4.89182413e-05 0)
(0.100174322 5.11606459e-05 0)
(0.100165876 5.30692461e-05 0)
(0.100157286 5.46732147e-05 0)
(0.100148593 5.59983796e-05 0)
(0.100139831 5.70680134e-05 0)
(0.100131031 5.79034923e-05 0)
(0.100122218 5.8524755e-05 0)
(0.100113414 5.89505607e-05 0)
(0.100104638 5.91985925e-05 0)
(0.100095908 5.92854739e-05 0)
(0.100087237 5.9226749e-05 0)
(0.100078638 5.90368548e-05 0)
(0.100070123 5.87290917e-05 0)
(0.100061703 5.83156003e-05 0)
(0.100053385 5.78073497e-05 0)
(0.100045177 5.72141424e-05 0)
(0.100037088 5.65446455e-05 0)
(0.100029121 5.58064606e-05 0)
(0.100021284 5.50062287e-05 0)
(0.100013579 5.41497566e-05 0)
(0.100006012 5.32421075e-05 0)
(0.0999985856 5.22876115e-05 0)
(0.0999913042 5.1289956e-05 0)
(0.0999841679 5.02519387e-05 0)
(0.0999771929 4.91766833e-05 0)
(0.0999703417 4.80615341e-05 0)
(0.0999637691 4.69225137e-05 0)
(0.0999569927 4.56827755e-05 0)
(0.0999518137 4.46379107e-05 0)
(0.0999426375 4.243912e-05 0)
(0.0999999779 -8.77623802e-06 0)
(0.100002191 -3.36646544e-05 0)
(0.100010111 -6.75703341e-05 0)
(0.100027282 -0.00011153423 0)
(0.100056357 -0.000162854147 0)
(0.100098774 -0.000214696529 0)
(0.100154296 -0.000257568156 0)
(0.100220404 -0.000281895639 0)
(0.100292265 -0.000281051092 0)
(0.100363593 -0.000253290543 0)
(0.100427972 -0.000201744652 0)
(0.100480087 -0.000132983652 0)
(0.100516876 -5.50815273e-05 0)
(0.100537089 2.4121026e-05 0)
(0.100540348 9.63867586e-05 0)
(0.100528823 0.000155703389 0)
(0.10050656 0.000198391787 0)
(0.100477251 0.000222967193 0)
(0.100444365 0.000229863291 0)
(0.100411124 0.000220927379 0)
(0.100380356 0.000198975644 0)
(0.100354416 0.000167700316 0)
(0.100335101 0.000131999533 0)
(0.10032325 9.82339154e-05 0)
(0.100318201 7.36292124e-05 0)
(0.100317645 6.52635301e-05 0)
(0.100317797 7.86645089e-05 0)
(0.10031378 0.000116411567 0)
(0.100300222 0.00017732937 0)
(0.100272138 0.00025660937 0)
(0.100225815 0.000346831056 0)
(0.100159374 0.000439508907 0)
(0.100072909 0.00052663322 0)
(0.0999682423 0.000601799798 0)
(0.0998484534 0.000660771764 0)
(0.0997173165 0.000701533883 0)
(0.0995788015 0.000724031751 0)
(0.0994366999 0.000729818099 0)
(0.0992943702 0.000721768982 0)
(0.0991545461 0.000703921792 0)
(0.0990191461 0.000681368186 0)
(0.0988890574 0.000660049844 0)
(0.0987639266 0.000646293613 0)
(0.0986420474 0.000646006966 0)
(0.0985204462 0.00066361606 0)
(0.09839524 0.000701003391 0)
(0.0982622604 0.000756804389 0)
(0.0981178408 0.000826384757 0)
(0.0979595825 0.000902632566 0)
(0.0977868826 0.00097742342 0)
(0.0976010578 0.00104336495 0)
(0.0974050175 0.00109530708 0)
(0.0972025848 0.00113117322 0)
(0.0969976769 0.00115190269 0)
(0.0967935906 0.00116060466 0)
(0.0965925817 0.00116128237 0)
(0.096395809 0.00115759283 0)
(0.0962035815 0.00115202532 0)
(0.096015756 0.00114566577 0)
(0.0958321198 0.00113846836 0)
(0.0956526369 0.00112979101 0)
(0.0954775234 0.00111892179 0)
(0.0953071877 0.00110541078 0)
(0.095142113 0.0010891595 0)
(0.0949827475 0.00107033231 0)
(0.0948294436 0.0010492008 0)
(0.0946824475 0.0010260132 0)
(0.0945419207 0.00100093095 0)
(0.0944079707 0.000974026086 0)
(0.0942806756 0.00094530997 0)
(0.0941600979 0.00091476416 0)
(0.0940462907 0.000882358529 0)
(0.0939393012 0.000848055602 0)
(0.093839177 0.000811807594 0)
(0.0937459735 0.000773552558 0)
(0.0936597658 0.000733212604 0)
(0.0935806594 0.000690690749 0)
(0.0935088001 0.000645864654 0)
(0.0934443625 0.000598537589 0)
(0.0933875002 0.000548414993 0)
(0.0933382696 0.000495251727 0)
(0.0932967189 0.000438774199 0)
(0.0932629583 0.000378692835 0)
(0.0932370881 0.000314853653 0)
(0.0932193145 0.00024727013 0)
(0.0932100201 0.000176136567 0)
(0.0932096598 0.000101819267 0)
(0.0932196369 2.46985229e-05 0)
(0.0932406998 -5.51763133e-05 0)
(0.0932719122 -0.000135937142 0)
(0.0933139769 -0.000217963756 0)
(0.0933685791 -0.000301958745 0)
(0.0934362511 -0.000387726124 0)
(0.0935172294 -0.000474869133 0)
(0.0936118907 -0.000563058724 0)
(0.0937204827 -0.000651838422 0)
(0.093843086 -0.00074058513 0)
(0.0939796808 -0.000828571014 0)
(0.0941301237 -0.000914984359 0)
(0.0942941076 -0.000998935799 0)
(0.0944711507 -0.00107948014 0)
(0.0946605886 -0.00115564496 0)
(0.094861569 -0.00122645949 0)
(0.095073052 -0.00129098518 0)
(0.0952938189 -0.00134834777 0)
(0.095522488 -0.00139776883 0)
(0.0957575363 -0.00143859471 0)
(0.0959973279 -0.00147032135 0)
(0.0962401489 -0.00149261337 0)
(0.0964842455 -0.00150531609 0)
(0.0967278653 -0.00150845985 0)
(0.0969692981 -0.0015022563 0)
(0.0972069149 -0.00148708735 0)
(0.0974392026 -0.00146348744 0)
(0.0976647929 -0.00143212076 0)
(0.0978824838 -0.00139375489 0)
(0.0980912548 -0.00134923257 0)
(0.0982902735 -0.0012994433 0)
(0.0984788967 -0.0012452961 0)
(0.0986566652 -0.00118769454 0)
(0.0988232931 -0.001127515 0)
(0.0989786547 -0.00106558859 0)
(0.0991227674 -0.00100268696 0)
(0.0992557741 -0.000939511941 0)
(0.0993779247 -0.000876688935 0)
(0.0994895573 -0.000814763519 0)
(0.0995910806 -0.000754200875 0)
(0.0996829575 -0.000695387577 0)
(0.0997656905 -0.000638635206 0)
(0.0998398082 -0.000584185295 0)
(0.0999058537 -0.000532215306 0)
(0.0999643755 -0.000482845205 0)
(0.100015918 -0.000436144295 0)
(0.100061018 -0.000392138126 0)
(0.100100196 -0.000350815284 0)
(0.100133955 -0.000312133891 0)
(0.100162777 -0.000276027911 0)
(0.100187118 -0.000242413327 0)
(0.100207413 -0.00021119409 0)
(0.100224067 -0.000182267488 0)
(0.100237459 -0.000155528847 0)
(0.100247939 -0.000130875394 0)
(0.100255822 -0.000108207882 0)
(0.10026139 -8.74288505e-05 0)
(0.100264897 -6.84396168e-05 0)
(0.100266576 -5.11389159e-05 0)
(0.100266643 -3.54217799e-05 0)
(0.100265297 -2.11780907e-05 0)
(0.100262743 -8.29583153e-06 0)
(0.100259149 3.33798027e-06 0)
(0.100254575 1.3882924e-05 0)
(0.100249145 2.33485136e-05 0)
(0.100243037 3.17556785e-05 0)
(0.100236337 3.91869145e-05 0)
(0.10022912 4.57236974e-05 0)
(0.100221459 5.1442114e-05 0)
(0.10021342 5.64204167e-05 0)
(0.100205061 6.0732996e-05 0)
(0.10019644 6.44469809e-05 0)
(0.100187606 6.7621654e-05 0)
(0.100178606 7.03094994e-05 0)
(0.100169485 7.25573134e-05 0)
(0.10016028 7.44070075e-05 0)
(0.100151026 7.58962474e-05 0)
(0.100141752 7.70590274e-05 0)
(0.100132484 7.79261748e-05 0)
(0.100123245 7.85257659e-05 0)
(0.100114053 7.88834528e-05 0)
(0.100104925 7.90227181e-05 0)
(0.100095875 7.89650746e-05 0)
(0.100086916 7.87302267e-05 0)
(0.100078058 7.83361991e-05 0)
(0.10006931 7.77994399e-05 0)
(0.100060679 7.71349079e-05 0)
(0.100052173 7.6356153e-05 0)
(0.100043796 7.54753906e-05 0)
(0.100035554 7.45035735e-05 0)
(0.100027451 7.34504704e-05 0)
(0.100019491 7.23247423e-05 0)
(0.100011675 7.11340094e-05 0)
(0.100004007 6.98848626e-05 0)
(0.0999964887 6.85827807e-05 0)
(0.0999891228 6.72321844e-05 0)
(0.0999819073 6.5835954e-05 0)
(0.0999748568 6.43972093e-05 0)
(0.0999679279 6.29106181e-05 0)
(0.0999612774 6.13970137e-05 0)
(0.099954377 5.97546545e-05 0)
(0.099949106 5.83770925e-05 0)
(0.0999394514 5.55730213e-05 0)
(0.100000163 -8.77994663e-06 0)
(0.100003465 -3.59027233e-05 0)
(0.10001279 -7.41712347e-05 0)
(0.100031247 -0.000124397228 0)
(0.100061249 -0.000183658257 0)
(0.10010405 -0.000244449771 0)
(0.100159307 -0.000295958812 0)
(0.10022458 -0.000326973203 0)
(0.100295303 -0.000329481766 0)
(0.100365557 -0.000301022471 0)
(0.100429265 -0.000244796138 0)
(0.100481282 -0.000168174406 0)
(0.100517964 -8.07313449e-05 0)
(0.100537912 7.37430729e-06 0)
(0.100542996 8.75223986e-05 0)
(0.100535502 0.000153451515 0)
(0.10051722 0.000201181197 0)
(0.100491324 0.00022912686 0)
(0.100461311 0.000237751939 0)
(0.100430383 0.000228982996 0)
(0.100401383 0.000205778167 0)
(0.100376679 0.000172064544 0)
(0.100357981 0.0001330472 0)
(0.10034608 9.54122747e-05 0)
(0.100340572 6.71264666e-05 0)
(0.100339526 5.6387944e-05 0)
(0.10033932 6.99006994e-05 0)
(0.100335017 0.000111110454 0)
(0.100321292 0.000179135944 0)
(0.100293381 0.000268826323 0)
(0.100247773 0.000371874339 0)
(0.100182635 0.000478547224 0)
(0.100097921 0.000579471037 0)
(0.0999952036 0.000667002907 0)
(0.099877267 0.0007359708 0)
(0.0997476314 0.000783811743 0)
(0.0996100943 0.000810305404 0)
(0.0994683646 0.0008171559 0)
(0.0993257914 0.000807629008 0)
(0.0991851495 0.00078633287 0)
(0.0990484307 0.000759085217 0)
(0.0989166164 0.000732697824 0)
(0.0987894604 0.000714482538 0)
(0.0986653697 0.000711368683 0)
(0.0985414884 0.000728699999 0)
(0.0984140533 0.000768982208 0)
(0.0982790081 0.000830985696 0)
(0.0981327653 0.000909594267 0)
(0.097972936 0.00099660651 0)
(0.0977988339 0.00108238893 0)
(0.0976116124 0.00115796118 0)
(0.0974139874 0.00121689982 0)
(0.0972096238 0.00125647686 0)
(0.0970023662 0.00127770968 0)
(0.09679554 0.00128438946 0)
(0.0965915113 0.00128151009 0)
(0.0963915898 0.00127368824 0)
(0.0961962318 0.00126408574 0)
(0.0960054061 0.00125407477 0)
(0.0958189644 0.00124356531 0)
(0.0956368913 0.00123168933 0)
(0.0954593944 0.00121748647 0)
(0.0952868616 0.00120034314 0)
(0.095119754 0.00118011501 0)
(0.094958503 0.00115701308 0)
(0.0948034481 0.0011313977 0)
(0.0946548237 0.00110360381 0)
(0.0945127775 0.00107385456 0)
(0.0943774002 0.00104225651 0)
(0.0942487496 0.00100883732 0)
(0.0941268659 0.000973586649 0)
(0.0940117791 0.000936479953 0)
(0.0939035138 0.000897483253 0)
(0.0938020945 0.000856547595 0)
(0.0937075536 0.00081360199 0)
(0.0936199395 0.000768549213 0)
(0.0935393246 0.000721263947 0)
(0.0934658106 0.000671591506 0)
(0.0933995257 0.000619344584 0)
(0.0933406077 0.00056431213 0)
(0.0932891939 0.000506295158 0)
(0.093245455 0.000445179305 0)
(0.0932096851 0.000380900714 0)
(0.0931822792 0.000313465523 0)
(0.093163613 0.000242957049 0)
(0.093153915 0.000169377174 0)
(0.0931532116 9.26570962e-05 0)
(0.0931604305 1.28508644e-05 0)
(0.0931763651 -6.98199056e-05 0)
(0.0932038407 -0.000155565267 0)
(0.0932438296 -0.000243761867 0)
(0.0932965001 -0.000334269753 0)
(0.0933622559 -0.000427018853 0)
(0.0934415959 -0.000521681544 0)
(0.0935349868 -0.000617814261 0)
(0.0936427773 -0.000714872852 0)
(0.0937651842 -0.000812167295 0)
(0.0939023064 -0.00090887675 0)
(0.0940540994 -0.00100407501 0)
(0.0942203404 -0.00109674476 0)
(0.0944006084 -0.00118579714 0)
(0.0945942716 -0.0012701001 0)
(0.0948004768 -0.00134851201 0)
(0.0950181468 -0.00141991959 0)
(0.0952459872 -0.00148327897 0)
(0.0954825031 -0.00153765688 0)
(0.0957260255 -0.001582269 0)
(0.0959747458 -0.0016165126 0)
(0.0962267593 -0.00163999109 0)
(0.0964801121 -0.00165252903 0)
(0.0967328524 -0.00165417674 0)
(0.0969830802 -0.00164520456 0)
(0.0972289939 -0.00162608763 0)
(0.0974689321 -0.0015974825 0)
(0.0977014063 -0.00156019754 0)
(0.097925126 -0.00151515928 0)
(0.0981390139 -0.00146337673 0)
(0.0983422125 -0.001405906 0)
(0.0985340819 -0.00134381688 0)
(0.0987141913 -0.00127816284 0)
(0.0988823047 -0.00120995546 0)
(0.0990383619 -0.00114014376 0)
(0.099182458 -0.00106959869 0)
(0.0993148207 -0.000999102461 0)
(0.0994357878 -0.000929342426 0)
(0.0995457853 -0.000860908901 0)
(0.0996453074 -0.000794296243 0)
(0.0997348975 -0.000729906626 0)
(0.0998151314 -0.000668055803 0)
(0.0998866037 -0.00060898021 0)
(0.0999499151 -0.000552844943 0)
(0.100005663 -0.000499752165 0)
(0.100054435 -0.000449749602 0)
(0.100096799 -0.000402838956 0)
(0.100133302 -0.000358983891 0)
(0.100164468 -0.00031811736 0)
(0.100190791 -0.000280148326 0)
(0.100212737 -0.000244967655 0)
(0.100230743 -0.000212453075 0)
(0.100245219 -0.000182473226 0)
(0.100256543 -0.000154890605 0)
(0.100265072 -0.000129564081 0)
(0.100271139 -0.000106353085 0)
(0.100275059 -8.51236567e-05 0)
(0.100277113 -6.57531113e-05 0)
(0.100277541 -4.81302208e-05 0)
(0.100276532 -3.21516584e-05 0)
(0.100274235 -1.77167484e-05 0)
(0.100270755 -4.7279599e-06 0)
(0.100266239 6.90461396e-06 0)
(0.100260883 1.7289112e-05 0)
(0.100254807 2.65703454e-05 0)
(0.100248086 3.48273847e-05 0)
(0.1002408 4.21351777e-05 0)
(0.100233033 4.85739845e-05 0)
(0.100224859 5.4217858e-05 0)
(0.100216342 5.91368536e-05 0)
(0.100207544 6.33972174e-05 0)
(0.100198522 6.70601947e-05 0)
(0.100189325 7.01827056e-05 0)
(0.100179999 7.28168686e-05 0)
(0.100170587 7.50097288e-05 0)
(0.100161122 7.68036506e-05 0)
(0.100151637 7.82368575e-05 0)
(0.100142158 7.93439361e-05 0)
(0.100132708 8.01563044e-05 0)
(0.100123307 8.07026157e-05 0)
(0.100113972 8.10090773e-05 0)
(0.100104717 8.10996927e-05 0)
(0.100095555 8.09964407e-05 0)
(0.100086496 8.07194133e-05 0)
(0.10007755 8.02869242e-05 0)
(0.100068723 7.97156013e-05 0)
(0.100060023 7.90204698e-05 0)
(0.100051456 7.82150333e-05 0)
(0.100043026 7.73113547e-05 0)
(0.100034738 7.6320138e-05 0)
(0.100026594 7.52508134e-05 0)
(0.100018598 7.41116208e-05 0)
(0.100010752 7.29096825e-05 0)
(0.100003057 7.1651067e-05 0)
(0.0999955136 7.03407975e-05 0)
(0.0999881244 6.8982976e-05 0)
(0.099980886 6.75802696e-05 0)
(0.0999738115 6.61358778e-05 0)
(0.0999668573 6.46447181e-05 0)
(0.0999601771 6.31291248e-05 0)
(0.0999532631 6.1490294e-05 0)
(0.0999479691 6.01211253e-05 0)
(0.0999385202 5.73682482e-05 0)
(0.100000005 -1.0905364e-05 0)
(0.100002455 -4.52797027e-05 0)
(0.100010739 -9.45425961e-05 0)
(0.100028464 -0.000159651425 0)
(0.100058512 -0.000236719759 0)
(0.100102533 -0.000316093817 0)
(0.100160414 -0.000383870948 0)
(0.100229688 -0.000425525194 0)
(0.10030547 -0.000430549155 0)
(0.10038128 -0.000395562868 0)
(0.100450382 -0.000324538352 0)
(0.100507063 -0.000226903753 0)
(0.100547554 -0.000114926255 0)
(0.100570434 -1.08816115e-06 0)
(0.100575847 0.000103610713 0)
(0.100565879 0.000189699784 0)
(0.100544242 0.000251908162 0)
(0.100514739 0.000288434394 0)
(0.100481177 0.000299961114 0)
(0.100447225 0.000288974865 0)
(0.10041617 0.000259224197 0)
(0.100390751 0.00021566265 0)
(0.100372934 0.000164882196 0)
(0.100363573 0.000115534398 0)
(0.100362031 7.80112672e-05 0)
(0.100365979 6.29588652e-05 0)
(0.100371487 7.89881893e-05 0)
(0.100373361 0.000130462714 0)
(0.100365798 0.000216223259 0)
(0.100343338 0.000329675749 0)
(0.10030182 0.000460208951 0)
(0.100239007 0.000595426089 0)
(0.100154752 0.000723440645 0)
(0.100050786 0.000834625334 0)
(0.0999302411 0.000922527308 0)
(0.0997970907 0.000983993616 0)
(0.0996556242 0.00101877769 0)
(0.09951003 0.00102897153 0)
(0.0993640835 0.00101854139 0)
(0.0992208944 0.000993082221 0)
(0.099082666 0.000959709148 0)
(0.098950449 0.000926847989 0)
(0.0988239235 0.000903649687 0)
(0.0987012886 0.000898873791 0)
(0.0985793584 0.000919333823 0)
(0.0984539371 0.000968271817 0)
(0.0983204743 0.00104420036 0)
(0.0981748987 0.00114071699 0)
(0.0980144417 0.00124753869 0)
(0.0978382265 0.00135260307 0)
(0.0976474411 0.00144468981 0)
(0.0974450367 0.00151579295 0)
(0.0972350424 0.00156252859 0)
(0.0970217053 0.00158618893 0)
(0.0968087117 0.00159153139 0)
(0.0965986958 0.0015848243 0)
(0.0963931243 0.00157187814 0)
(0.0961925112 0.00155669611 0)
(0.0959968146 0.00154104653 0)
(0.0958058409 0.0015248623 0)
(0.0956195244 0.00150709098 0)
(0.0954380329 0.00148655332 0)
(0.0952617287 0.00146249835 0)
(0.0950910572 0.00143476353 0)
(0.0949264351 0.00140363664 0)
(0.0947681829 0.00136959868 0)
(0.0946165085 0.00133310257 0)
(0.0944715259 0.00129446108 0)
(0.0943332863 0.0012538373 0)
(0.0942018057 0.00121128947 0)
(0.0940770815 0.00116682145 0)
(0.0939591016 0.00112041244 0)
(0.0938478505 0.00107202346 0)
(0.0937433148 0.00102159089 0)
(0.0936454919 0.00096901861 0)
(0.0935543977 0.00091417437 0)
(0.0934700751 0.000856890971 0)
(0.0933925986 0.00079697026 0)
(0.0933220757 0.000734187865 0)
(0.0932586428 0.000668301593 0)
(0.0932024635 0.000599070954 0)
(0.0931537374 0.000526274083 0)
(0.0931127089 0.000449702076 0)
(0.0930796427 0.000369104473 0)
(0.0930547353 0.00028420959 0)
(0.0930381861 0.000194766887 0)
(0.0930305047 0.000100748582 0)
(0.0930334708 2.42208128e-06 0)
(0.0930475653 -9.91260155e-05 0)
(0.0930723316 -0.000203734065 0)
(0.0931088975 -0.000311724937 0)
(0.0931583189 -0.000423019306 0)
(0.0932213301 -0.000537296349 0)
(0.0932985717 -0.00065409962 0)
(0.0933906428 -0.000772854658 0)
(0.0934980557 -0.000892848781 0)
(0.0936211993 -0.00101320691 0)
(0.0937603227 -0.00113289683 0)
(0.0939155078 -0.00125074677 0)
(0.0940866335 -0.00136546395 0)
(0.0942733466 -0.0014756616 0)
(0.0944750391 -0.00157989641 0)
(0.0946908322 -0.00167671275 0)
(0.0949195705 -0.00176469175 0)
(0.0951598277 -0.00184250356 0)
(0.0954099258 -0.00190896008 0)
(0.0956679662 -0.0019630646 0)
(0.095931874 -0.00200405492 0)
(0.096199451 -0.00203143655 0)
(0.0964684372 -0.00204500353 0)
(0.0967365743 -0.0020448451 0)
(0.09700167 -0.00203133804 0)
(0.0972616568 -0.00200512548 0)
(0.0975146432 -0.00196708442 0)
(0.0977589544 -0.00191828459 0)
(0.0979931609 -0.00185994222 0)
(0.0982160953 -0.00179337167 0)
(0.0984268571 -0.0017199381 0)
(0.0986248066 -0.00164101368 0)
(0.098809551 -0.00155793895 0)
(0.0989809239 -0.00147199064 0)
(0.0991389592 -0.00138435653 0)
(0.0992838643 -0.00129611714 0)
(0.0994159908 -0.00120823397 0)
(0.0995358063 -0.00112154366 0)
(0.0996438683 -0.00103675706 0)
(0.0997407989 -0.00095446234 0)
(0.0998272641 -0.000875131192 0)
(0.0999039543 -0.000799127276 0)
(0.0999715692 -0.000726716034 0)
(0.100030805 -0.000658075369 0)
(0.100082343 -0.000593306675 0)
(0.100126843 -0.000532445748 0)
(0.100164936 -0.000475473249 0)
(0.100197223 -0.000422324409 0)
(0.100224268 -0.00037289797 0)
(0.100246601 -0.000327064541 0)
(0.100264716 -0.000284674264 0)
(0.100279072 -0.000245563612 0)
(0.100290092 -0.000209561767 0)
(0.100298168 -0.000176496932 0)
(0.100303651 -0.0001462017 0)
(0.100306849 -0.00011851576 0)
(0.100308024 -9.328587e-05 0)
(0.100307405 -7.03643557e-05 0)
(0.100305199 -4.96066134e-05 0)
(0.10030161 -3.08681391e-05 0)
(0.10029683 -1.39999456e-05 0)
(0.100291052 1.16597227e-06 0)
(0.10028446 1.47822475e-05 0)
(0.100277179 2.69542596e-05 0)
(0.100269302 3.77755191e-05 0)
(0.100260925 4.73519689e-05 0)
(0.100252135 5.57890981e-05 0)
(0.100243005 6.31864371e-05 0)
(0.100233597 6.96367484e-05 0)
(0.100223967 7.52271492e-05 0)
(0.100214166 8.0038963e-05 0)
(0.100204237 8.41469597e-05 0)
(0.10019422 8.76195021e-05 0)
(0.100184153 9.05188242e-05 0)
(0.100174066 9.29013315e-05 0)
(0.100163988 9.48180572e-05 0)
(0.100153945 9.63151547e-05 0)
(0.100143958 9.74343639e-05 0)
(0.100134046 9.82134548e-05 0)
(0.100124225 9.86866427e-05 0)
(0.10011451 9.88849567e-05 0)
(0.100104912 9.88365625e-05 0)
(0.10009544 9.85670408e-05 0)
(0.100086103 9.80996255e-05 0)
(0.100076906 9.74554061e-05 0)
(0.100067856 9.66535004e-05 0)
(0.100058957 9.57112017e-05 0)
(0.100050211 9.46441074e-05 0)
(0.100041621 9.34662315e-05 0)
(0.100033189 9.21901045e-05 0)
(0.100024916 9.08268634e-05 0)
(0.100016802 8.93863308e-05 0)
(0.10000885 8.78770785e-05 0)
(0.100001057 8.63064813e-05 0)
(0.0999934245 8.46807067e-05 0)
(0.0999859525 8.30048555e-05 0)
(0.0999786363 8.12823531e-05 0)
(0.099971488 7.95174307e-05 0)
(0.0999644601 7.77045562e-05 0)
(0.0999577091 7.58716474e-05 0)
(0.0999506913 7.3901655e-05 0)
(0.0999453234 7.22648098e-05 0)
(0.0999354585 6.89969624e-05 0)
(0.100000057 -1.18142673e-05 0)
(0.100002772 -5.10726324e-05 0)
(0.100011501 -0.000108426719 0)
(0.100029909 -0.000184696445 0)
(0.10006084 -0.000275399581 0)
(0.100105833 -0.000369519299 0)
(0.100164683 -0.00045101731 0)
(0.100234911 -0.000502910936 0)
(0.100311712 -0.000512652461 0)
(0.100388746 -0.000475829856 0)
(0.10045941 -0.000396601875 0)
(0.100518035 -0.000285693568 0)
(0.100560753 -0.000157439049 0)
(0.100585975 -2.69185462e-05 0)
(0.100593871 9.2251979e-05 0)
(0.100586324 0.000190689048 0)
(0.100566746 0.000262486266 0)
(0.100538953 0.000305227561 0)
(0.100506815 0.000319522494 0)
(0.100474057 0.000308057856 0)
(0.100444038 0.000274945866 0)
(0.100419582 0.000225704001 0)
(0.100402775 0.000167766572 0)
(0.100394652 0.00011093442 0)
(0.100394766 6.70293247e-05 0)
(0.100400807 4.83449392e-05 0)
(0.100408583 6.50834375e-05 0)
(0.100412603 0.000122752929 0)
(0.100407007 0.000220475842 0)
(0.100386464 0.000350948965 0)
(0.100346919 0.000502047019 0)
(0.100286107 0.000659401717 0)
(0.100203743 0.000809087984 0)
(0.100101373 0.000939707416 0)
(0.0999819638 0.00104351611 0)
(0.0998493746 0.00111662267 0)
(0.0997078473 0.00115855426 0)
(0.099561579 0.00117159365 0)
(0.0994143976 0.00116022576 0)
(0.0992695025 0.00113084336 0)
(0.0991292152 0.00109162603 0)
(0.0989947148 0.00105231885 0)
(0.0988657915 0.00102358508 0)
(0.0987407122 0.00101573822 0)
(0.0986163103 0.00103693978 0)
(0.0984883699 0.00109127172 0)
(0.0983522943 0.00117730811 0)
(0.0982039461 0.00128779655 0)
(0.0980404717 0.00141077976 0)
(0.0978608973 0.00153202124 0)
(0.0976663251 0.00163811626 0)
(0.0974596648 0.00171937331 0)
(0.0972449712 0.00177158399 0)
(0.0970265859 0.00179617444 0)
(0.0968083376 0.00179880827 0)
(0.0965930164 0.00178705018 0)
(0.096382229 0.00176797162 0)
(0.0961765943 0.00174648243 0)
(0.0959761376 0.00172477728 0)
(0.0957807014 0.00170279926 0)
(0.0955902368 0.00167926968 0)
(0.0954049176 0.00165274215 0)
(0.095225107 0.00162229224 0)
(0.095051246 0.00158772284 0)
(0.0948837405 0.00154939917 0)
(0.0947228912 0.0015079325 0)
(0.0945688772 0.00146390482 0)
(0.094421775 0.00141772711 0)
(0.0942815923 0.00136962496 0)
(0.0941482972 0.00131969264 0)
(0.0940218374 0.00126795513 0)
(0.0939021512 0.00121440502 0)
(0.0937891741 0.00115901062 0)
(0.0936828463 0.00110170816 0)
(0.0935831212 0.00104239215 0)
(0.0934899742 0.000980911571 0)
(0.0934034103 0.00091707279 0)
(0.0933234708 0.000850646538 0)
(0.0932502358 0.000781376576 0)
(0.093183826 0.00070899002 0)
(0.0931244042 0.000633210253 0)
(0.0930721806 0.000553770048 0)
(0.0930274199 0.000470419456 0)
(0.0929904492 0.000382934757 0)
(0.0929616496 0.000291151148 0)
(0.0929415375 0.000195047519 0)
(0.0929307417 9.47277864e-05 0)
(0.0929294517 -9.76493977e-06 0)
(0.0929383101 -0.00011925218 0)
(0.0929584792 -0.000233331725 0)
(0.0929908127 -0.000351666784 0)
(0.0930362156 -0.00047408785 0)
(0.0930955393 -0.000600332737 0)
(0.0931695995 -0.000729966486 0)
(0.0932591822 -0.000862376345 0)
(0.0933649991 -0.000996764629 0)
(0.093487643 -0.00113213667 0)
(0.0936275567 -0.00126730152 0)
(0.0937849969 -0.00140088482 0)
(0.0939599903 -0.00153134904 0)
(0.0941522935 -0.00165702404 0)
(0.0943613585 -0.00177615033 0)
(0.0945863079 -0.001886934 0)
(0.0948259216 -0.00198761077 0)
(0.0950786384 -0.00207651608 0)
(0.0953425768 -0.00215215649 0)
(0.0956155721 -0.00221327736 0)
(0.0958952317 -0.00225892137 0)
(0.0961790041 -0.00228847325 0)
(0.0964642574 -0.0023016871 0)
(0.0967483635 -0.00229869417 0)
(0.0970287798 -0.00227999104 0)
(0.0973031247 -0.00224640952 0)
(0.0975692415 -0.00219907159 0)
(0.097825248 -0.00213933342 0)
(0.0980695692 -0.00206872311 0)
(0.0983009544 -0.00198887676 0)
(0.098518478 -0.00190147705 0)
(0.098721528 -0.00180819737 0)
(0.0989097835 -0.001710654 0)
(0.099083185 -0.00161036742 0)
(0.0992418997 -0.0015087333 0)
(0.0993862845 -0.00140700285 0)
(0.0995168499 -0.00130627155 0)
(0.0996342246 -0.00120747532 0)
(0.0997391228 -0.00111139273 0)
(0.0998323164 -0.0010186518 0)
(0.0999146094 -0.000929740336 0)
(0.0999868173 -0.000845018529 0)
(0.10004975 -0.000764732861 0)
(0.1001042 -0.000689030612 0)
(0.100150928 -0.000617974219 0)
(0.100190663 -0.000551554971 0)
(0.100224088 -0.000489705873 0)
(0.100251848 -0.00043231356 0)
(0.100274539 -0.000379228965 0)
(0.100292711 -0.000330276603 0)
(0.100306871 -0.000285262451 0)
(0.100317481 -0.000243980531 0)
(0.100324958 -0.000206218194 0)
(0.100329677 -0.000171760353 0)
(0.100331982 -0.000140392993 0)
(0.10033219 -0.000111905752 0)
(0.100330598 -8.60930252e-05 0)
(0.100327481 -6.27545125e-05 0)
(0.100323074 -4.16966699e-05 0)
(0.100317572 -2.27353011e-05 0)
(0.100311153 -5.70143708e-06 0)
(0.100303925 9.55456527e-06 0)
(0.10029596 2.31789702e-05 0)
(0.100287384 3.5299323e-05 0)
(0.100278318 4.6040898e-05 0)
(0.10026885 5.55238026e-05 0)
(0.100259054 6.38558901e-05 0)
(0.100248997 7.11375875e-05 0)
(0.10023874 7.74632649e-05 0)
(0.100228336 8.29207403e-05 0)
(0.100217829 8.7591501e-05 0)
(0.100207263 9.15507871e-05 0)
(0.100196673 9.48677393e-05 0)
(0.100186091 9.76056404e-05 0)
(0.100175546 9.9822167e-05 0)
(0.10016506 0.000101569734 0)
(0.100154655 0.000102895909 0)
(0.100144348 0.000103843828 0)