/*--------------------------------*- C++ -*----------------------------------*\
| =========                 |                                                 |
| \\      /  F ield         | OpenFOAM: The Open Source CFD Toolbox           |
|  \\    /   O peration     | Version:  v2012                                 |
|   \\  /    A nd           | Website:  www.openfoam.com                      |
|    \\/     M anipulation  |                                                 |
\*---------------------------------------------------------------------------*/
FoamFile
{
    version     2.0;
    format      ascii;
    class       volScalarField;
    location    "2.99";
    object      p;
}
// * * * * * * * * * * * * * * * * * * * * * * * * * * * * * * * * * * * * * //

dimensions      [0 2 -2 0 0 0 0];


internalField   nonuniform List<scalar> 
28416
(
0.0118032191
0.01180271
0.0118017162
0.011800296
0.0117985401
0.0117965117
0.0117942347
0.0117917129
0.011788947
0.0117859347
0.0117826635
0.011779113
0.0117752108
0.0117706322
0.0117657611
0.0117604884
0.0117548548
0.0117488249
0.0117423429
0.0117353809
0.0117279212
0.0117199549
0.0117114951
0.0117025388
0.0116930136
0.0116828504
0.0116720075
0.0116604617
0.0116481896
0.0116351524
0.0116213003
0.0116065803
0.0115909375
0.0115743145
0.0115566546
0.0115379032
0.0115180096
0.0114969279
0.0114746178
0.0114510451
0.0114261811
0.0114000023
0.011372488
0.0113436179
0.0113133683
0.0112817104
0.0112486087
0.0112140226
0.0111779088
0.0111402258
0.011100937
0.0110600148
0.0110174426
0.0109732148
0.0109273364
0.0108798212
0.0108306894
0.0107799662
0.0107276805
0.0106738646
0.0106185545
0.0105617895
0.0105036128
0.0104440711
0.0103832145
0.0103210956
0.0102577696
0.0101932932
0.0101277247
0.0100611232
0.00999354843
0.0099250603
0.0098557186
0.00978558256
0.00971471048
0.00964315921
0.00957098337
0.00949823447
0.00942496143
0.00935119054
0.00927696826
0.00920232247
0.0091272857
0.00905191024
0.00897624969
0.00890035593
0.00882428197
0.0087480709
0.00867164678
0.00859526069
0.00851845287
0.0084413157
0.00836399576
0.00828647621
0.00820870445
0.00813065929
0.00805232054
0.0079736543
0.00789462248
0.00781518767
0.00773531206
0.0076549579
0.00757408922
0.00749267329
0.00741068175
0.00732809172
0.00724488692
0.00716105847
0.00707660548
0.00699153532
0.00690586357
0.00681961371
0.00673281654
0.00664550926
0.00655773441
0.00646953877
0.00638097203
0.00629208559
0.00620293136
0.00611356066
0.00602402323
0.00593436646
0.0058446347
0.00575486877
0.00566510562
0.00557537816
0.00548571516
0.00539614131
0.00530667734
0.00521734022
0.00512814338
0.00503909702
0.00495020839
0.00486148218
0.0047729209
0.00468452512
0.00459629382
0.00450822475
0.00442031476
0.00433256009
0.00424495659
0.00415749988
0.00407018551
0.00398300915
0.00389596673
0.00380905435
0.00372226776
0.00363560135
0.00354904671
0.00346258743
0.00337622772
0.00328994513
0.00320374587
0.00311763288
0.00303159887
0.00294563669
0.00285974153
0.00277390875
0.00268813377
0.00260241221
0.0025167401
0.00243111376
0.00234552979
0.00225998502
0.0021744765
0.00208900148
0.00200355741
0.00191814188
0.00183275265
0.00174738765
0.00166204494
0.00157672266
0.00149141911
0.00140613263
0.00132086163
0.00123560462
0.00115036016
0.00106512681
0.000979903215
0.000894688015
0.000809479859
0.000724277403
0.000639079367
0.000553884354
0.00046869123
0.000383497672
0.000298304746
0.000213099848
0.000127910161
4.2593012e-05
0.0118054928
0.0118051717
0.0118044749
0.0118033475
0.0118018334
0.0117999931
0.0117978449
0.0117953778
0.0117925821
0.0117894545
0.0117859872
0.0117821556
0.0117779333
0.0117734108
0.0117683213
0.0117628829
0.0117570149
0.0117507043
0.0117439491
0.0117367288
0.0117290215
0.0117208052
0.0117120524
0.0117027169
0.0116927712
0.0116821884
0.0116709332
0.0116589653
0.0116462454
0.0116327359
0.0116183953
0.0116031771
0.0115870323
0.0115699112
0.0115517648
0.0115325462
0.0115122115
0.0114907205
0.0114680368
0.0114441276
0.0114189626
0.0113925136
0.0113647526
0.0113356516
0.0113051814
0.0112733119
0.0112400117
0.0112052482
0.0111689889
0.0111312023
0.0110918603
0.0110509407
0.0110084284
0.0109643168
0.0109186073
0.0108713089
0.0108224367
0.0107720111
0.0107200568
0.0106666021
0.0106116794
0.010555324
0.0104975753
0.0104384753
0.0103780697
0.0103164066
0.0102535368
0.0101895129
0.0101243893
0.0100582219
0.00999106752
0.00992298357
0.00985402779
0.00978425783
0.00971373077
0.00964250272
0.00957062833
0.00949816061
0.00942515088
0.0093516458
0.00927769544
0.00920336146
0.00912869199
0.00905373538
0.00897853278
0.00890310122
0.00882744309
0.00875153962
0.0086754708
0.00859916678
0.00852275936
0.00844613922
0.00836929747
0.00829225661
0.00821499359
0.00813747501
0.00805967082
0.00798154417
0.00790305131
0.00782414589
0.00774478021
0.00766490613
0.00758447684
0.00750344883
0.00742178352
0.00733944897
0.00725642133
0.00717268612
0.00708823905
0.00700308654
0.00691724566
0.00683074377
0.00674361769
0.00665591246
0.00656767992
0.00647897713
0.00638986459
0.0063004046
0.00621065969
0.00612069116
0.00603055786
0.0059403152
0.00585001439
0.00575970188
0.00566941906
0.00557920211
0.00548908205
0.00539908486
0.00530923176
0.00521953956
0.005130021
0.00504068523
0.00495153819
0.00486258304
0.00477382063
0.00468524982
0.00459686793
0.00450867108
0.00442065438
0.00433281229
0.00424513887
0.00415762787
0.00407027279
0.00398306689
0.00389600295
0.00380907323
0.0037222697
0.00363558424
0.00354900983
0.0034625471
0.00337616616
0.00328988527
0.00320369021
0.00311757558
0.00303153849
0.00294557385
0.00285967674
0.00277384242
0.00268806619
0.00260234391
0.00251667163
0.00243104558
0.00234546223
0.00225991832
0.00217441081
0.00208893688
0.00200349391
0.00191807944
0.0018326912
0.00174732708
0.0016619851
0.00157666341
0.00149136028
0.00140607405
0.00132080315
0.00123554608
0.0011503014
0.0010650677
0.000979843634
0.000894627897
0.000809419191
0.000724216247
0.000639017874
0.000553822783
0.000468630028
0.000383437562
0.000298247262
0.00021304734
0.00012786986
4.25702939e-05
0.0118071824
0.0118067809
0.0118059776
0.0118047677
0.0118031933
0.011801306
0.0117991247
0.0117966404
0.0117938408
0.0117907183
0.0117872618
0.0117834483
0.0117792283
0.0117744509
0.0117696943
0.0117643547
0.0117585421
0.0117522805
0.0117455362
0.011738291
0.0117305317
0.0117222439
0.0117134135
0.0117040227
0.0116940457
0.0116834434
0.0116721709
0.0116601874
0.0116474565
0.0116339378
0.0116195872
0.01160436
0.0115882102
0.0115710905
0.0115529536
0.0115337534
0.011513446
0.0114919903
0.0114693479
0.0114454835
0.0114203647
0.0113939612
0.0113662447
0.0113371872
0.0113067598
0.0112749317
0.0112416704
0.0112069424
0.0111707148
0.0111329568
0.0110936417
0.0110527483
0.0110102623
0.010966177
0.0109204936
0.0108732201
0.0108243708
0.0107739654
0.010722028
0.0106685866
0.0106136731
0.010557323
0.0104995753
0.0104404723
0.0103800594
0.0103183848
0.0102554994
0.0101914558
0.0101263088
0.0100601144
0.00999292963
0.00992481244
0.00985582116
0.00978601418
0.00971544966
0.00964418508
0.00957227691
0.00949978019
0.00942674782
0.00935322976
0.00927927535
0.00920493214
0.00913023894
0.00905521718
0.00897989503
0.00890431038
0.00882854899
0.00875272617
0.00867666536
0.00860051356
0.00852416704
0.00844766146
0.00837099422
0.00829414584
0.00821709026
0.00813979613
0.00806222864
0.00798434646
0.00790610184
0.00782744335
0.00774831745
0.00766866979
0.00758844709
0.00750759932
0.00742608178
0.00734385706
0.00726089688
0.0071771836
0.0070927113
0.00700748636
0.00692152743
0.00683486498
0.00674754025
0.00665960376
0.00657111359
0.00648213345
0.00639273057
0.00630297382
0.00621293184
0.00612267139
0.00603225606
0.00594174516
0.00585119294
0.00576064808
0.00567015341
0.00557974588
0.00548945664
0.00539931134
0.00530933047
0.00521952978
0.00512992074
0.00504051104
0.00495130505
0.00486230435
0.00477350818
0.00468491382
0.00459651698
0.00450831222
0.00442029317
0.00433245284
0.0042447838
0.00415727836
0.00406992873
0.00398272734
0.00389566716
0.00380874197
0.00372194627
0.00363527472
0.00354872063
0.00346227238
0.00337592321
0.00328966424
0.00320349179
0.00311740075
0.00303138538
0.00294544027
0.00285956054
0.00277374164
0.00268797923
0.00260226927
0.00251660794
0.00243099163
0.00234541697
0.00225988082
0.00217438024
0.00208891252
0.0020034751
0.00191806561
0.00183268181
0.00174732165
0.00166198315
0.0015766645
0.00149136397
0.00140607993
0.00132081084
0.00123555523
0.0011503117
0.00106507891
0.000979855553
0.000894640402
0.000809432239
0.000724229881
0.000639032222
0.000553838073
0.000468646597
0.000383455854
0.000298267616
0.000213069666
0.000127891064
4.25842851e-05
0.0118100134
0.0118097047
0.0118090446
0.011807983
0.0118065411
0.0118047587
0.0118026482
0.0118001972
0.0117973933
0.0117942321
0.0117907098
0.0117868178
0.011782551
0.011777961
0.0117726859
0.0117671054
0.0117611311
0.0117547142
0.0117478383
0.0117404825
0.0117326245
0.0117242423
0.0117153116
0.0117058032
0.0116956817
0.0116849092
0.0116734512
0.011661276
0.0116483477
0.0116346282
0.011620076
0.0116046462
0.0115882921
0.0115709669
0.0115526241
0.0115332194
0.0115127111
0.0114910605
0.0114682326
0.0114441957
0.011418921
0.0113923812
0.011364549
0.0113353968
0.0113048951
0.0112730132
0.0112397185
0.0112049774
0.0111687561
0.0111310224
0.011091748
0.0110509105
0.011008495
0.0109644946
0.0109189105
0.0108717509
0.0108230298
0.0107727658
0.0107209815
0.0106677029
0.0106129597
0.0105567846
0.0104992141
0.010440288
0.0103800492
0.0103185439
0.0102558206
0.0101919305
0.0101269266
0.010060864
0.00999379893
0.00992578908
0.00985689288
0.00978716931
0.00971667754
0.0096454765
0.0095736245
0.00950117878
0.00942819507
0.00935472727
0.00928082778
0.00920654746
0.00913193439
0.00905703494
0.00898190158
0.00890660238
0.00883116858
0.00875559841
0.00867975133
0.00860380375
0.00852776324
0.00845159348
0.00837528826
0.00829883592
0.00822221155
0.00814538032
0.00806830036
0.0079909226
0.0079131909
0.00783504378
0.00775641626
0.00767724179
0.00759745453
0.00751699197
0.00743579758
0.00735382342
0.00727103254
0.00718740096
0.00710291912
0.00701759268
0.00693144253
0.00684450415
0.00675682625
0.00666846884
0.00657950094
0.0064899981
0.00640003973
0.00630970664
0.00621907881
0.00612823335
0.00603724296
0.0059461747
0.00585508913
0.00576403982
0.00567307314
0.0055822284
0.005491538
0.00540102789
0.00531071815
0.00522062346
0.00513075376
0.00504111495
0.00495170937
0.00486253644
0.00477359318
0.00468487468
0.00459637454
0.00450808527
0.00441999858
0.00433210572
0.00424439778
0.00415686599
0.00406950185
0.00398229694
0.00389524269
0.00380833008
0.00372154968
0.0036348918
0.00354834599
0.00346190451
0.00337556084
0.00328931014
0.00320314728
0.00311706608
0.00303106099
0.00294512688
0.00285925873
0.00277345175
0.00268770142
0.00260200355
0.00251635418
0.00243074962
0.0023451864
0.00225966132
0.00217417137
0.00208871378
0.002003286
0.00191788562
0.00183251042
0.00174715835
0.00166182748
0.001576516
0.00149122224
0.00140594459
0.00132068155
0.0012354317
0.00115019367
0.00106496615
0.000979747885
0.000894537694
0.000809334413
0.000724136918
0.000638944182
0.000553755106
0.000468568988
0.000383384048
0.000298202578
0.000213012912
0.000127848266
4.25610013e-05
0.0118131011
0.0118127725
0.0118120946
0.0118110201
0.0118095685
0.0118077827
0.0118056765
0.0118032358
0.0118004445
0.0117972957
0.0117937841
0.0117899012
0.0117856363
0.0117809788
0.0117758905
0.0117703821
0.0117644302
0.0117580121
0.0117511157
0.0117437229
0.0117358137
0.0117273675
0.0117183612
0.0117087695
0.0116985679
0.0116877321
0.0116762298
0.0116640204
0.0116510608
0.0116373063
0.0116227133
0.0116072389
0.0115908401
0.0115734732
0.0115550948
0.0115356633
0.0115151389
0.0114934849
0.0114706667
0.0114466515
0.011421408
0.0113949058
0.011367115
0.0113380054
0.0113075457
0.0112757035
0.0112424454
0.0112077383
0.0111715501
0.0111338509
0.0110946149
0.0110538211
0.0110114549
0.0109675085
0.0109219818
0.0108748808
0.0108262177
0.0107760095
0.0107242777
0.0106710476
0.0106163478
0.0105602106
0.0105026715
0.0104437694
0.0103835465
0.0103220478
0.0102593213
0.0101954174
0.0101303888
0.0100642903
0.00999717817
0.00992911044
0.00986014617
0.00979034535
0.00971976856
0.00964847653
0.00957652982
0.00950398836
0.00943091107
0.00935735548
0.00928337761
0.0092090315
0.00913436846
0.00905943591
0.00898427625
0.00890892212
0.00883338006
0.00875762824
0.00868204303
0.00860631518
0.00853048242
0.00845455617
0.00837853317
0.00830240063
0.00822613256
0.00814969164
0.00807303127
0.00799609574
0.00791882062
0.00784113432
0.00776296012
0.00768421853
0.00760483008
0.00752471854
0.00744381422
0.00736205744
0.00727940156
0.00719581568
0.00711128651
0.00702581946
0.00693943864
0.00685218595
0.00676411936
0.0066753103
0.0065858407
0.00649579972
0.00640528043
0.00631437672
0.00622318059
0.00613177971
0.00604025568
0.00594868271
0.00585712676
0.00576564513
0.00567428639
0.00558309074
0.00549209034
0.00540131003
0.00531076805
0.00522047676
0.00513044347
0.0050406712
0.00495115936
0.00486190444
0.00477290064
0.00468414036
0.00459561469
0.00450731386
0.00441922751
0.00433134501
0.00424365553
0.00415614809
0.00406881154
0.00398163502
0.00389460837
0.00380772225
0.00372096786
0.0036343372
0.00354782494
0.00346142112
0.00337511771
0.00328890564
0.00320277865
0.00311673122
0.00303075768
0.00294485269
0.00285901128
0.0027732288
0.00268750086
0.0026018234
0.00251619262
0.00243060498
0.00234505719
0.00225954618
0.00217406911
0.0020886233
0.00200320631
0.00191781581
0.00183244964
0.0017471058
0.0016617824
0.00157647769
0.00149119002
0.00140591783
0.00132065968
0.00123541418
0.00115018005
0.00106495603
0.000979740949
0.000894533706
0.00080933322
0.000724138458
0.000638948484
0.000553762293
0.00046857927
0.000383397707
0.000298219749
0.00021303329
0.000127868551
4.2574923e-05
0.011816702
0.0118163898
0.0118157404
0.011814705
0.0118132972
0.0118115525
0.0118094785
0.0118070577
0.0118042734
0.0118011196
0.0117975931
0.0117936865
0.0117893908
0.0117846921
0.0117795357
0.0117739564
0.0117679434
0.0117614867
0.0117545591
0.0117471391
0.0117392081
0.0117307461
0.0117217329
0.0117121451
0.0117019513
0.0116911127
0.0116795935
0.0116673547
0.0116543582
0.0116405689
0.0116259463
0.0116104463
0.0115940242
0.0115766365
0.0115582409
0.0115387966
0.0115182653
0.011496611
0.0114738001
0.0114498012
0.0114245842
0.0113981187
0.0113703736
0.011341316
0.0113109119
0.0112791268
0.0112459266
0.011211278
0.011175149
0.0111375094
0.0110983327
0.0110575974
0.0110152882
0.0109713968
0.0109259224
0.0108788705
0.0108302527
0.0107800855
0.0107283895
0.010675189
0.010620512
0.0105643895
0.0105068559
0.0104479492
0.0103877105
0.010326184
0.0102634171
0.0101994596
0.0101343642
0.0100681856
0.0100009807
0.00993280827
0.00986372861
0.00979380335
0.0097230951
0.00965166706
0.00957958263
0.00950690503
0.00943369681
0.00936001947
0.00928593307
0.00921149574
0.00913676297
0.00906178693
0.00898661592
0.00891129402
0.00883586032
0.0087603554
0.00868483439
0.00860926702
0.00853366748
0.00845804146
0.0083823802
0.00830666536
0.0082308677
0.00815494587
0.00807884664
0.00800250531
0.00792584635
0.00784878481
0.00777122849
0.00769308072
0.00761424381
0.00753462301
0.00745413087
0.00737269165
0.00729024546
0.00720675178
0.00712219208
0.00703657122
0.0069499175
0.00686228142
0.00677373326
0.00668435967
0.00659425964
0.00650354027
0.0064123125
0.00632068716
0.00622877164
0.00613666705
0.00604446618
0.0059522521
0.00586009736
0.00576806374
0.00567620241
0.00558455451
0.00549315181
0.00540201768
0.00531116808
0.00522061251
0.005130355
0.00504039512
0.00495072874
0.00486134884
0.00477224622
0.00468341002
0.00459482825
0.0045064882
0.00441837675
0.00433048066
0.00424278698
0.00415528328
0.00406795789
0.00398079972
0.00389379793
0.00380694187
0.00372022112
0.00363362597
0.00354714502
0.00346077068
0.00337449556
0.00328831275
0.00320221541
0.00311619722
0.00303025227
0.00294437507
0.00285856055
0.00277280397
0.00268710087
0.00260144717
0.00251583902
0.00243027286
0.00234474537
0.00225925349
0.00217379437
0.00208836539
0.00200296412
0.00191758831
0.00183223587
0.00174690486
0.00166159347
0.00157630003
0.00149102295
0.00140576077
0.00132051207
0.00123527555
0.00115004996
0.00106483411
0.000979626893
0.000894427237
0.000809234128
0.000724046593
0.000638863763
0.000553684702
0.000468508877
0.000383334653
0.000298164443
0.000212986421
0.00012783366
4.25563827e-05
0.0118207679
0.0118204657
0.0118198333
0.0118188176
0.0118174305
0.0118157083
0.011813659
0.0118112648
0.0118085085
0.0118053832
0.0118018846
0.0117980047
0.0117937293
0.0117890426
0.0117839513
0.0117784199
0.0117724456
0.0117660047
0.011759087
0.0117516782
0.0117437587
0.011735307
0.0117262977
0.0117167028
0.011706496
0.0116956527
0.0116841485
0.0116719378
0.0116589803
0.0116452275
0.0116306363
0.0116151656
0.011598774
0.0115814195
0.0115630607
0.0115436582
0.0115231749
0.0115015757
0.0114788275
0.0114548984
0.0114297572
0.011403373
0.0113757146
0.0113467499
0.0113164451
0.0112847645
0.0112516712
0.0112171281
0.0111811002
0.0111435555
0.0111044666
0.0110638117
0.0110215753
0.0109777491
0.0109323313
0.0108853269
0.0108367468
0.0107866066
0.0107349263
0.0106817297
0.0106270439
0.010570899
0.0105133289
0.0104543704
0.0103940638
0.0103324527
0.0102695837
0.0102055066
0.0101402738
0.0100739404
0.0100065637
0.0099382035
0.00986892154
0.00979878128
0.00972784769
0.00965618683
0.00958386547
0.00951095066
0.00943750924
0.00936360731
0.00928930982
0.00921467988
0.00913977823
0.00906466258
0.00898938719
0.00891400264
0.00883855544
0.00876309488
0.00868759362
0.00861214241
0.00853673265
0.00846136331
0.00838602782
0.00831070747
0.0082353709
0.00815997286
0.00808445369
0.00800873933
0.00793274188
0.00785636092
0.00777948581
0.00770199895
0.00762378002
0.00754471098
0.0074646817
0.00738359582
0.00730137628
0.00721797016
0.00713335223
0.00704752689
0.00696052821
0.0068724182
0.00678328345
0.00669323047
0.0066023803
0.00651086282
0.00641881125
0.00632635715
0.0062336263
0.00614073539
0.00604778971
0.00595488175
0.00586209055
0.00576948175
0.00567710807
0.0055850103
0.00549321835
0.00540175259
0.00531062514
0.00521984115
0.00512940005
0.0050392967
0.00494952234
0.0048600655
0.00477091278
0.00468204947
0.00459346011
0.00450512899
0.0044170404
0.00432917892
0.00424152944
0.00415407712
0.00406680753
0.00397970682
0.00389276197
0.00380596117
0.00371929445
0.0036327572
0.00354633157
0.00346001106
0.00337378867
0.00328765648
0.00320160722
0.00311563453
0.0030297325
0.00294389562
0.00285811882
0.00277239742
0.00268672707
0.00260110376
0.00251552382
0.00242998381
0.00234448056
0.00225901116
0.00217357289
0.00208816324
0.0020027799
0.0019174207
0.00183208362
0.00174676682
0.00166146855
0.00157618719
0.00149092126
0.00140566932
0.00132043006
0.00123520225
0.00114998473
0.00106477638
0.000979576187
0.000894383174
0.000809196414
0.000724015019
0.000638838204
0.000553665115
0.000468495286
0.000383327148
0.000298163052
0.000212990973
0.000127842069
4.25643309e-05
0.0118252849
0.0118249919
0.0118243754
0.0118233797
0.0118220164
0.0118203216
0.0118183013
0.011815935
0.0118132036
0.0118100995
0.0118066184
0.0118027521
0.0117984905
0.0117938242
0.011788736
0.0117832244
0.0117772677
0.011770856
0.0117639712
0.0117565941
0.0117487065
0.011740289
0.0117313221
0.0117217851
0.0117116498
0.011700871
0.0116894553
0.0116773266
0.0116644401
0.011650762
0.01163625
0.0116208605
0.0116045507
0.0115872786
0.0115690046
0.0115496908
0.0115293014
0.0115078025
0.0114851622
0.01146135
0.0114363356
0.0114100877
0.0113825724
0.0113537532
0.0113235913
0.0112920469
0.0112590809
0.0112246555
0.0111887358
0.0111512897
0.0111122894
0.0110717122
0.0110295419
0.0109857691
0.0109403914
0.0108934131
0.0108448442
0.0107946999
0.0107429998
0.0106897671
0.0106350284
0.0105788134
0.010521155
0.0104620895
0.0104016564
0.0103398988
0.0102768629
0.0102125984
0.0101471578
0.0100805968
0.0100129738
0.00994434979
0.00987478852
0.00980435587
0.00973311976
0.00966114971
0.00958851643
0.00951529139
0.00944154624
0.00936735229
0.00929277995
0.00921789805
0.00914277321
0.00906746915
0.00899204598
0.00891655945
0.00884106261
0.0087656043
0.00869020461
0.00861489528
0.00853970039
0.00846462972
0.00838967614
0.00831482144
0.00824003332
0.00816526297
0.00809044408
0.00801549231
0.00794030551
0.00786476488
0.00778873731
0.00771207916
0.00763464139
0.00755627595
0.00747684307
0.00739621914
0.00731430429
0.00723102903
0.00714635921
0.00706029872
0.00697288951
0.00688420916
0.00679436606
0.00670349303
0.00661173986
0.00651926577
0.00642623219
0.0063327964
0.00623910651
0.00614529758
0.00605148917
0.00595778402
0.00586426777
0.00577100934
0.00567806209
0.00558546519
0.00549324532
0.00540141837
0.00530999126
0.00521896344
0.0051283285
0.00503807549
0.00494819007
0.00485865549
0.00476945348
0.00468056485
0.00459197003
0.00450364947
0.00441558395
0.00432775494
0.00424014493
0.00415273759
0.00406551777
0.0039784714
0.00389158458
0.0038048425
0.00371823859
0.00363175471
0.00354538718
0.0034591229
0.00337295379
0.00328687287
0.0032008729
0.00311494727
0.00302908998
0.00294329551
0.00285755876
0.0027718751
0.00268624023
0.00260065022
0.00251510147
0.00242959061
0.00234411457
0.00225867054
0.00217325587
0.00208786819
0.00200250528
0.00191716508
0.00183184568
0.00174654536
0.00166126246
0.00157599547
0.00149074298
0.00140550368
0.0013202763
0.00123505971
0.00114985281
0.00106465456
0.000979463988
0.000894280196
0.000809102312
0.000723929512
0.000638761074
0.000553596204
0.000468434503
0.000383274445
0.000298118515
0.000212954799
0.000127816092
4.25512402e-05
0.0118302439
0.0118299606
0.0118293605
0.0118283852
0.0118270464
0.0118253811
0.0118233948
0.011821066
0.0118183751
0.0118153142
0.0118118791
0.0118080617
0.0118038507
0.0117992341
0.0117942005
0.0117887365
0.0117828333
0.0117764746
0.0117696456
0.0117623315
0.0117545161
0.0117461816
0.0117373072
0.011727867
0.0117178335
0.0117071912
0.0116958478
0.0116838101
0.0116710389
0.011657484
0.0116430961
0.0116278323
0.0116116508
0.0115945106
0.0115763722
0.0115571986
0.0115369554
0.0115156097
0.0114931301
0.0114694856
0.0114446447
0.0114185744
0.0113912397
0.0113626031
0.0113326244
0.0113012613
0.011268471
0.0112342115
0.0111984439
0.0111611336
0.0111222515
0.0110817746
0.0110396866
0.0109959777
0.010950645
0.0109036919
0.010855128
0.0108049679
0.0107532309
0.01069994
0.0106451212
0.0105888038
0.0105310201
0.0104718054
0.0104111988
0.0103492426
0.0102859828
0.0102214688
0.0101557534
0.0100888929
0.0100209466
0.00995197725
0.00988205053
0.00981123506
0.00973960205
0.00966722498
0.00959417913
0.0095205411
0.00944638823
0.0093717979
0.00929684693
0.00922161081
0.00914616298
0.00907057413
0.00899491151
0.00891923828
0.00884361134
0.00876807875
0.00869268262
0.00861746382
0.00854244742
0.00846764516
0.00839305865
0.00831867365
0.00824445844
0.00817036218
0.00809631278
0.00802221554
0.0079479527
0.0078733842
0.00779835
0.00772267426
0.00764617164
0.00756865534
0.00748994678
0.00740988619
0.00732834313
0.00724522578
0.00716048801
0.0070741331
0.00698621387
0.00689682901
0.00680611631
0.00671424356
0.00662139833
0.00652777773
0.00643357887
0.00633899085
0.00624418861
0.00614932853
0.00605454595
0.00595995414
0.00586564459
0.00577168818
0.00567813694
0.00558502633
0.0054923775
0.00540019966
0.00530849235
0.0052172474
0.00512645081
0.00503608431
0.00494612665
0.00485655473
0.00476734448
0.00467847156
0.00458991193
0.00450164234
0.00441364048
0.00432588514
0.00423835613
0.00415103439
0.00406390204
0.00397694305
0.00389014437
0.00380349079
0.00371696804
0.00363056384
0.00354427149
0.00345808184
0.00337198454
0.00328597149
0.00320003561
0.00311417038
0.00302836985
0.00294262863
0.00285694177
0.00277130476
0.00268571344
0.00260016404
0.00251465309
0.00242917741
0.00234373408
0.00225832042
0.00217293397
0.00208757248
0.00200223385
0.00191691617
0.00183161766
0.00174633669
0.00166107173
0.00157582136
0.00149058429
0.00140535929
0.00132014522
0.00123494102
0.00114974569
0.00106455829
0.000979377963
0.000894203881
0.00080903527
0.000723871391
0.0006387116
0.000553555178
0.000468401784
0.000383249956
0.000298102171
0.000212946473
0.000127814554
4.2554052e-05
0.0118356357
0.011835363
0.0118347805
0.011833827
0.011832515
0.0118308829
0.0118289357
0.0118266498
0.0118240047
0.011820992
0.0118176071
0.0118138417
0.0118096847
0.0118051254
0.0118001533
0.0117947602
0.0117889305
0.0117826505
0.0117759061
0.0117686824
0.0117609629
0.0117527292
0.0117439613
0.0117346377
0.011724733
0.0117142148
0.0117030433
0.0116911793
0.0116785781
0.0116651926
0.0116509785
0.0116358907
0.0116198863
0.0116029247
0.0115849677
0.0115659799
0.0115459279
0.0115247801
0.0115025058
0.0114790748
0.0114544557
0.0114286148
0.0114015145
0.011373113
0.0113433651
0.0113122233
0.0112796404
0.0112455714
0.0112099754
0.0111728162
0.0111340637
0.0110936941
0.0110516899
0.011008041
0.0109627436
0.0109158009
0.010867222
0.0108170215
0.0107652185
0.0107118359
0.0106568996
0.0106004383
0.0105424837
0.0104830704
0.0104222365
0.0103600239
0.0102964781
0.0102316482
0.0101655874
0.0100983524
0.0100300039
0.00996060637
0.00989022795
0.0098189404
0.00974681885
0.00967394135
0.00960038845
0.00952624261
0.00945158755
0.00937650753
0.00930108658
0.0092254077
0.00914955203
0.00907359804
0.00899762069
0.00892169039
0.00884587239
0.00877022684
0.00869480614
0.00861965786
0.00854480893
0.00847028384
0.00839609187
0.00832222398
0.00824865191
0.00817532501
0.00810216693
0.00802907307
0.00795590906
0.00788251078
0.00780868622
0.00773421998
0.00765888072
0.00758243141
0.00750464212
0.00742530454
0.00734424672
0.00726134637
0.00717654104
0.00708983352
0.00700129188
0.00691104407
0.00681926798
0.00672617851
0.00663201319
0.00653701818
0.00644143575
0.00634549415
0.00624940021
0.0061533346
0.00605744951
0.0059618684
0.00586668712
0.00577197621
0.00567778376
0.0055841386
0.00549105353
0.00539852835
0.00530655278
0.00521510885
0.0051241731
0.00503371839
0.00494371534
0.00485413349
0.00476494227
0.00467611157
0.00458761227
0.00449941657
0.00441149824
0.00432383286
0.00423639797
0.00414917303
0.00406213898
0.00397527713
0.00388857308
0.00380201273
0.00371558205
0.0036292684
0.00354306023
0.00345694947
0.00337092747
0.00328498605
0.00319911801
0.00311331682
0.00302757656
0.00294189187
0.00285625793
0.00277067032
0.00268512507
0.00259961856
0.00251414749
0.00242870888
0.00234329998
0.00225791828
0.0021725615
0.00208722754
0.00200191448
0.00191662054
0.0018313441
0.00174608364
0.00166083778
0.00157560522
0.00149038477
0.00140517532
0.00131997583
0.00123478533
0.00114960291
0.00106442773
0.000979258977
0.000894095924
0.000808937862
0.000723784121
0.000638634125
0.000553487217
0.000468343122
0.000383200426
0.000298061696
0.000212915051
0.000127793092
4.25442469e-05
0.0118414508
0.0118411896
0.0118406261
0.0118396966
0.0118384142
0.0118368195
0.0118349169
0.0118326816
0.0118300923
0.0118271404
0.0118238212
0.011820126
0.0118160439
0.0118115642
0.0118066771
0.0118013701
0.0117956328
0.0117894519
0.0117828137
0.0117757045
0.0117681092
0.0117600117
0.0117513936
0.0117422338
0.0117325072
0.0117221742
0.0117111978
0.0116995348
0.0116871408
0.011673972
0.0116599794
0.0116451158
0.011629338
0.0116126059
0.0115948823
0.0115761328
0.0115563254
0.0115354298
0.0115134165
0.0114902549
0.0114659127
0.0114403539
0.0114135382
0.0113854201
0.0113559501
0.0113250759
0.0112927451
0.0112589076
0.0112235186
0.0111865393
0.0111479383
0.0111076913
0.0110657809
0.0110221967
0.0109769346
0.0109299973
0.0108813937
0.0108311381
0.0107792498
0.0107257516
0.0106706693
0.0106140312
0.0105558682
0.010496214
0.010435106
0.0103725848
0.0103086954
0.0102434867
0.0101770117
0.0101093279
0.010040497
0.00997058535
0.00989966366
0.00982780715
0.00975509522
0.00968161107
0.00960744122
0.00953267489
0.0094574032
0.00938171833
0.00930571267
0.00922947781
0.00915310365
0.00907667753
0.00900028341
0.00892400111
0.00884790517
0.00877206415
0.00869654264
0.00862139167
0.00854665888
0.00847237668
0.00839856432
0.00832522252
0.00825233036
0.00817984117
0.00810767755
0.00803572701
0.00796383869
0.00789182189
0.00781944705
0.00774645025
0.00767254183
0.00759741936
0.00752078455
0.00744236325
0.0073619265
0.00727930981
0.00719442808
0.00710728359
0.0070179659
0.00692664375
0.00683355028
0.00673896421
0.00664318963
0.00654653664
0.00644930481
0.00635177046
0.00625417801
0.00615673516
0.00605961133
0.00596293859
0.00586681437
0.00577130524
0.00567645136
0.00558227092
0.00548876449
0.00539591896
0.0053037111
0.00521211045
0.00512108186
0.00503058748
0.00494058831
0.00485104536
0.00476192064
0.00467317771
0.00458478214
0.0044967018
0.00440890687
0.00432136987
0.00423406549
0.0041469708
0.00406006597
0.00397333129
0.0038867497
0.00380030666
0.00371398769
0.00362778239
0.00354167849
0.00345566594
0.00336973618
0.00328388128
0.00319809418
0.00311236863
0.00302669896
0.00294108007
0.0028555074
0.00276997682
0.00268448459
0.00259902735
0.00251360205
0.00242820591
0.00234283642
0.00225749126
0.00217216835
0.00208686577
0.00200158179
0.0019163148
0.00183106333
0.00174582603
0.00166060166
0.00157538905
0.00149018715
0.00140499496
0.00131981155
0.00123463609
0.00114946777
0.00106430583
0.000979149581
0.000893998387
0.000808851628
0.000723708721
0.000638569168
0.000553432385
0.00046829816
0.000383165143
0.000298035917
0.000212898642
0.000127785248
4.25437798e-05
0.0118476785
0.0118474298
0.0118468873
0.0118459842
0.0118447351
0.0118431824
0.0118413306
0.0118391534
0.0118366284
0.0118337471
0.0118305044
0.0118268916
0.0118228972
0.0118185112
0.0118137244
0.0118085248
0.0118029019
0.0117968439
0.011790338
0.0117833714
0.0117759302
0.0117679987
0.0117595595
0.0117505921
0.0117410682
0.0117309553
0.0117202134
0.011708798
0.0116966634
0.0116837586
0.0116700336
0.0116554408
0.0116399366
0.0116234813
0.0116060386
0.0115875755
0.0115680616
0.0115474679
0.0115257655
0.0115029242
0.0114789109
0.0114536878
0.0114272112
0.0113994309
0.011370291
0.0113397325
0.0113076967
0.011274128
0.0112389774
0.0112022037
0.0111637741
0.0111236635
0.0110818546
0.0110383366
0.0109931057
0.0109461643