/*--------------------------------*- C++ -*----------------------------------*\
| =========                 |                                                 |
| \\      /  F ield         | OpenFOAM: The Open Source CFD Toolbox           |
|  \\    /   O peration     | Version:  v2012                                 |
|   \\  /    A nd           | Website:  www.openfoam.com                      |
|    \\/     M anipulation  |                                                 |
\*---------------------------------------------------------------------------*/
FoamFile
{
    version     2.0;
    format      ascii;
    class       surfaceScalarField;
    location    "2.99";
    object      phi;
}
// * * * * * * * * * * * * * * * * * * * * * * * * * * * * * * * * * * * * * //

dimensions      [0 3 -1 0 0 0 0];
oriented        oriented;


internalField   nonuniform List<scalar> 
56481
(
6.66683023e-07
-4.45885384e-11
6.6673713e-07
-1.60344686e-10
6.66841529e-07
-3.15970233e-10
6.67009533e-07
-5.16981902e-10
6.67250608e-07
-7.50624952e-10
6.67565447e-07
-9.85141723e-10
6.67942575e-07
-1.17677219e-09
6.68358154e-07
-1.28160464e-09
6.6877959e-07
-1.26955124e-09
6.69171517e-07
-1.13325282e-09
6.69501855e-07
-8.87696934e-10
6.69746159e-07
-5.62998949e-10
6.69888766e-07
-1.94722987e-10
6.6995073e-07
1.75288845e-10
6.69943156e-07
5.13647109e-10
6.69874931e-07
7.92626696e-10
6.69758918e-07
9.93135071e-10
6.69610628e-07
1.10750363e-09
6.69446145e-07
1.13712623e-09
6.6928036e-07
1.09088595e-09
6.69125854e-07
9.8272496e-10
6.68990597e-07
8.31158802e-10
6.68879064e-07
6.61116917e-10
6.68794951e-07
5.00243554e-10
6.68732517e-07
3.83582714e-10
6.68675897e-07
3.44699541e-10
6.68600168e-07
4.09381946e-10
6.68475982e-07
5.89273021e-10
6.68275492e-07
8.78443234e-10
6.67977098e-07
1.25411529e-09
6.67568342e-07
1.68138749e-09
6.67046813e-07
2.12036226e-09
6.66419246e-07
2.53318783e-09
6.6569933e-07
2.88925065e-09
6.64904994e-07
3.16788743e-09
6.64055876e-07
3.35888088e-09
6.63171389e-07
3.46154278e-09
6.62269394e-07
3.4832924e-09
6.6136523e-07
3.43838686e-09
6.60470734e-07
3.34701388e-09
6.59593053e-07
3.23449198e-09
6.58733341e-07
3.12998245e-09
6.578858e-07
3.06406939e-09
6.5703769e-07
3.06491175e-09
6.56170842e-07
3.15334096e-09
6.55264712e-07
3.33803064e-09
6.54300423e-07
3.61232242e-09
6.5326475e-07
3.95415134e-09
6.52152916e-07
4.32970717e-09
6.5096945e-07
4.7002391e-09
6.49726945e-07
5.03024507e-09
6.48443168e-07
5.29466579e-09
6.47137436e-07
5.4829547e-09
6.45827267e-07
5.59895855e-09
6.44526141e-07
5.65701366e-09
6.43242756e-07
5.67593018e-09
6.41981648e-07
5.67307529e-09
6.40744667e-07
5.66040693e-09
6.39532615e-07
5.64327412e-09
6.38346505e-07
5.62163488e-09
6.37188146e-07
5.59254931e-09
6.3606012e-07
5.55265776e-09
6.34965399e-07
5.49976068e-09
6.3390688e-07
5.43326761e-09
6.32887065e-07
5.35380311e-09
6.31907933e-07
5.26249384e-09
6.30970975e-07
5.16036719e-09
6.30077311e-07
5.04804707e-09
6.29227801e-07
4.92575047e-09
6.28423128e-07
4.79342197e-09
6.2766385e-07
4.65087269e-09
6.26950435e-07
4.49787584e-09
6.2628329e-07
4.33419034e-09
6.25662817e-07
4.15954406e-09
6.25089479e-07
3.9736271e-09
6.24563902e-07
3.77608733e-09
6.24087102e-07
3.56650573e-09
6.2366119e-07
3.34434514e-09
6.23288112e-07
3.10854715e-09
6.22967653e-07
2.85727313e-09
6.22701997e-07
2.58852143e-09
6.22492253e-07
2.30294389e-09
6.22338537e-07
2.00023985e-09
6.2224111e-07
1.67886588e-09
6.22199398e-07
1.33839248e-09
6.22211511e-07
9.7976234e-10
6.22274336e-07
6.05597127e-10
6.22383255e-07
2.19953392e-10
6.22546624e-07
-1.8014412e-10
6.22797309e-07
-5.84986331e-10
6.2313285e-07
-9.92901279e-10
6.23554188e-07
-1.41007278e-09
6.24061914e-07
-1.83543716e-09
6.24656587e-07
-2.26763715e-09
6.25338557e-07
-2.70549111e-09
6.261077e-07
-3.14676725e-09
6.26963345e-07
-3.58833799e-09
6.27904183e-07
-4.02659678e-09
6.28928122e-07
-4.45753168e-09
6.30032156e-07
-4.87675794e-09
6.31212292e-07
-5.27962272e-09
6.32463527e-07
-5.66132358e-09
6.33779855e-07
-6.01705006e-09
6.35154319e-07
-6.34212989e-09
6.36579088e-07
-6.63220006e-09
6.38045566e-07
-6.88335744e-09
6.39544522e-07
-7.09232397e-09
6.41066254e-07
-7.25655321e-09
6.4260077e-07
-7.37433528e-09
6.44137989e-07
-7.44484507e-09
6.45667951e-07
-7.46816732e-09
6.47181017e-07
-7.44526393e-09
6.48668068e-07
-7.3779317e-09
6.5012067e-07
-7.26871845e-09
6.51531212e-07
-7.12080399e-09
6.5289301e-07
-6.9378871e-09
6.54200375e-07
-6.72405079e-09
6.55448643e-07
-6.48361514e-09
6.56634177e-07
-6.22101623e-09
6.57754338e-07
-5.94068353e-09
6.58807432e-07
-5.64692292e-09
6.5979264e-07
-5.34383729e-09
6.60709937e-07
-5.03524851e-09
6.61559998e-07
-4.7246498e-09
6.62344105e-07
-4.41516164e-09
6.63064049e-07
-4.10952049e-09
6.6372204e-07
-3.81007242e-09
6.64320619e-07
-3.51877348e-09
6.64862579e-07
-3.23721218e-09
6.65350889e-07
-2.96663157e-09
6.65788636e-07
-2.70795239e-09
6.66178969e-07
-2.46180953e-09
6.66525053e-07
-2.22858454e-09
6.66830031e-07
-2.00843592e-09
6.67096994e-07
-1.80133665e-09
6.6732896e-07
-1.60710575e-09
6.67528856e-07
-1.42543682e-09
6.67699507e-07
-1.25593136e-09
6.67843627e-07
-1.09812674e-09
6.67963813e-07
-9.51520867e-10
6.68062541e-07
-8.1559981e-10
6.68142155e-07
-6.89861077e-10
6.68204837e-07
-5.73832705e-10
6.68252556e-07
-4.67077291e-10
6.68287001e-07
-3.69186035e-10
6.68309534e-07
-2.79757995e-10
6.68321223e-07
-1.9836323e-10
6.68322924e-07
-1.24501697e-10
6.6831541e-07
-5.76038023e-11
6.68299638e-07
3.00204713e-12
6.68278257e-07
5.72101485e-11
6.68251497e-07
1.0615198e-10
6.68219735e-07
1.49715484e-10
6.68183339e-07
1.88368077e-10
6.68142765e-07
2.22478268e-10
6.68098502e-07
2.52414505e-10
6.68051036e-07
2.78572429e-10
6.6800085e-07
3.01317285e-10
6.6794842e-07
3.20972251e-10
6.67894172e-07
3.37853776e-10
6.67838481e-07
3.52234977e-10
6.67781679e-07
3.64354741e-10
6.67724054e-07
3.74423345e-10
6.67665857e-07
3.82628448e-10
6.67607304e-07
3.89138513e-10
6.6754858e-07
3.94107022e-10
6.67489845e-07
3.97674681e-10
6.67431237e-07
3.9997158e-10
6.67372873e-07
4.01117618e-10
6.67314859e-07
4.01223827e-10
6.67257286e-07
4.00392884e-10
6.67200235e-07
3.98718853e-10
6.67143777e-07
3.96288086e-10
6.67087975e-07
3.93179466e-10
6.67032886e-07
3.89464037e-10
6.66978557e-07
3.85205871e-10
6.66925033e-07
3.80462339e-10
6.66872349e-07
3.75283925e-10
6.66820539e-07
3.69715357e-10
6.66769629e-07
3.63795631e-10
6.66719648e-07
3.57558509e-10
6.66670618e-07
3.51031793e-10
6.66622561e-07
3.44238432e-10
6.66575503e-07
3.37194342e-10
6.6652947e-07
3.29915761e-10
6.66484504e-07
3.22376973e-10
6.66440651e-07
3.14674462e-10
6.66398054e-07
3.06278069e-10
6.66356726e-07
2.99097227e-10
2.84301796e-10
6.66670943e-07
-4.8931413e-11
6.66707081e-07
-1.96482648e-10
6.667932e-07
-4.02089888e-10
6.66947474e-07
-6.7125582e-10
6.67184906e-07
-9.88056389e-10
6.67511073e-07
-1.31130915e-09
6.67916853e-07
-1.58255192e-09
6.68377117e-07
-1.74186851e-09
6.68854555e-07
-1.74698945e-09
6.69307011e-07
-1.58570874e-09
6.69695586e-07
-1.27627176e-09
6.69991658e-07
-8.59071329e-10
6.70182301e-07
-3.85365785e-10
6.70261076e-07
9.65139301e-11
6.70233096e-07
5.41626753e-10
6.70121114e-07
9.04608544e-10
6.69949301e-07
1.16494872e-09
6.69742161e-07
1.31464362e-09
6.69522031e-07
1.35725617e-09
6.69308937e-07
1.30397972e-09
6.69120115e-07
1.17154671e-09
6.68969264e-07
9.82010525e-10
6.68866009e-07
7.64371069e-10
6.68810015e-07
5.56237602e-10
6.68791472e-07
4.02126291e-10
6.68790323e-07
3.45847978e-10
6.6877777e-07
4.21935014e-10
6.68719524e-07
6.47519271e-10
6.68581017e-07
1.01695009e-09
6.68333319e-07
1.50181396e-09
6.6795781e-07
2.05689571e-09
6.67448528e-07
2.62964493e-09
6.66811856e-07
3.16985992e-09
6.66064135e-07
3.636971e-09
6.65228203e-07
4.0038195e-09
6.64329867e-07
4.25721743e-09
6.63394989e-07
4.39642064e-09
6.62447393e-07
4.43088858e-09
6.61507377e-07
4.37840269e-09
6.60590445e-07
4.26394567e-09
6.5970595e-07
4.11898739e-09
6.58855674e-07
3.98025813e-09
6.58032758e-07
3.88698526e-09
6.57221608e-07
3.87606123e-09
6.5639938e-07
3.97556954e-09
6.55539247e-07
4.19816372e-09
6.54615106e-07
4.536463e-09
6.53606751e-07
4.96250678e-09
6.52504177e-07
5.43228126e-09
6.51309755e-07
5.89466032e-09
6.50037559e-07
6.30244112e-09
6.48710014e-07
6.62221159e-09
6.47352906e-07
6.84006262e-09
6.45990274e-07
6.96158987e-09
6.44640626e-07
7.00666166e-09
6.43315347e-07
7.00120979e-09
6.42019332e-07
6.96909012e-09
6.40753138e-07
6.92660108e-09
6.3951558e-07
6.88083193e-09
6.38305829e-07
6.831386e-09
6.37124482e-07
6.77389624e-09
6.35973618e-07
6.70352175e-09
6.34856206e-07
6.6171726e-09
6.33775348e-07
6.5141259e-09
6.3273371e-07
6.39544058e-09
6.31733287e-07
6.2629169e-09
6.30775435e-07
6.11821927e-09
6.29861049e-07
5.96243304e-09
6.28990746e-07
5.79605314e-09
6.28164994e-07
5.61917494e-09
6.27384173e-07
5.43169297e-09
6.26648618e-07
5.23343086e-09
6.25958641e-07
5.02416724e-09
6.25314583e-07
4.80360257e-09
6.24716875e-07
4.57133472e-09
6.24166123e-07
4.32683926e-09
6.23663181e-07
4.069448e-09
6.23209182e-07
3.79834421e-09
6.22805266e-07
3.51246331e-09
6.22452101e-07
3.21043768e-09
6.22149577e-07
2.89104575e-09
6.21898728e-07
2.55379285e-09
6.2170005e-07
2.1989179e-09
6.21554304e-07
1.82461167e-09
6.21463876e-07
1.4288208e-09
6.21431726e-07
1.01191219e-09
6.21463498e-07
5.73824706e-10
6.2157005e-07
1.13401751e-10
6.2174136e-07
-3.51453957e-10
6.2198499e-07
-8.28616822e-10
6.22308819e-07
-1.31673017e-09
6.22716341e-07
-1.81759448e-09
6.23211484e-07
-2.33058029e-09
6.23797058e-07
-2.85321085e-09
6.24474697e-07
-3.38313036e-09
6.25245399e-07
-3.91746924e-09
6.26109496e-07
-4.45243499e-09
6.27066453e-07
-4.98355444e-09
6.28114743e-07
-5.50582158e-09
6.29251741e-07
-6.01375576e-09
6.30473635e-07
-6.50151617e-09
6.31775366e-07
-6.96305526e-09
6.33150624e-07
-7.39230796e-09
6.34591875e-07
-7.78338107e-09
6.36090446e-07
-8.1307705e-09
6.37636643e-07
-8.42955492e-09
6.39219929e-07
-8.6756096e-09
6.40829126e-07
-8.86574996e-09
6.42452663e-07
-8.99787266e-09
6.44078843e-07
-9.07102453e-09
6.45696113e-07
-9.08543739e-09
6.47293334e-07
-9.04248564e-09
6.48860028e-07
-8.9446249e-09
6.50386583e-07
-8.79527429e-09
6.51864432e-07
-8.59865236e-09
6.53286164e-07
-8.35961894e-09
6.54645604e-07
-8.08349152e-09
6.55937838e-07
-7.77584927e-09
6.57159194e-07
-7.44237223e-09
6.58307194e-07
-7.08868272e-09
6.59380469e-07
-6.72019813e-09
6.60378664e-07
-6.34203252e-09
6.61302319e-07
-5.95890367e-09
6.62152749e-07
-5.57507911e-09
6.62931916e-07
-5.19432893e-09
6.63642315e-07
-4.8199192e-09
6.64286854e-07
-4.45461222e-09
6.64868756e-07
-4.10067522e-09
6.65391459e-07
-3.75991484e-09
6.65858537e-07
-3.43371029e-09
6.66273632e-07
-3.12304721e-09
6.66640389e-07
-2.82856631e-09
6.66962412e-07
-2.55060703e-09
6.67243223e-07
-2.2892476e-09
6.67486238e-07
-2.04435132e-09
6.67694736e-07
-1.81560432e-09
6.6787185e-07
-1.60255003e-09
6.68020546e-07
-1.40462809e-09
6.68143625e-07
-1.22120506e-09
6.68243702e-07
-1.05159789e-09
6.683232e-07
-8.95097836e-10
6.6838433e-07
-7.50990986e-10
6.68429085e-07
-6.18587839e-10
6.6845926e-07
-4.97252831e-10
6.68476486e-07
-3.86411651e-10
6.68482254e-07
-2.8552645e-10
6.68477951e-07
-1.94059929e-10
6.68464892e-07
-1.11443034e-10
6.68444385e-07
-3.70961414e-11
6.68417126e-07
3.02611778e-11
6.68383666e-07
9.06696546e-11
6.6834524e-07
1.44578615e-10
6.68302497e-07
1.92457565e-10
6.68256064e-07
2.34801731e-10
6.68206443e-07
2.72098788e-10
6.68154081e-07
3.04776648e-10
6.68099398e-07
3.33255635e-10
6.6804278e-07
3.5793506e-10
6.67984574e-07
3.79178217e-10
6.67925109e-07
3.9731851e-10
6.67864689e-07
4.12655763e-10
6.67803585e-07
4.25458777e-10
6.67742039e-07
4.3596846e-10
6.67680266e-07
4.44402295e-10
6.67618448e-07
4.50956352e-10
6.67556746e-07
4.5580899e-10
6.67495298e-07
4.59122825e-10
6.67434222e-07
4.61047067e-10
6.67373622e-07
4.6171812e-10
6.67313584e-07
4.6126134e-10
6.67254185e-07
4.59791822e-10
6.6719549e-07
4.574143e-10
6.67137553e-07
4.54224366e-10
6.67080424e-07
4.50308907e-10
6.67024142e-07
4.45745826e-10
6.66968743e-07
4.40605173e-10
6.66914256e-07
4.34949567e-10
6.66860706e-07
4.28833982e-10
6.66808114e-07
4.22306977e-10
6.66756499e-07
4.15410698e-10
6.66705876e-07
4.08181637e-10
6.66656258e-07
4.00649721e-10
6.66607657e-07
3.9283947e-10
6.66560084e-07
3.84767061e-10
6.66513549e-07
3.76451117e-10
6.66468063e-07
3.67862581e-10
6.66423602e-07
3.59135217e-10
6.66380179e-07
3.49701898e-10
6.66337341e-07
3.41934518e-10
3.26222323e-10
6.66677586e-07
-5.98177944e-11
6.66721254e-07
-2.40150476e-10
6.66815337e-07
-4.96172477e-10
6.6697689e-07
-8.32808737e-10
6.67218872e-07
-1.23003901e-09
6.67545465e-07
-1.63790185e-09
6.67947527e-07
-1.98461366e-09
6.684012e-07
-2.19554189e-09
6.68871278e-07
-2.21706728e-09
6.69317909e-07
-2.03233981e-09
6.69703831e-07
-1.6621934e-09
6.69999988e-07
-1.1552291e-09
6.70189128e-07
-5.74505267e-10
6.70270934e-07
1.4707752e-11
6.70264931e-07
5.47630135e-10
6.70178769e-07
9.90770357e-10
6.70031762e-07
1.31195518e-09
6.69845796e-07
1.50060985e-09
6.69642938e-07
1.56011435e-09
6.6944344e-07
1.50347743e-09
6.69264696e-07
1.35029113e-09
6.69120298e-07
1.12640815e-09
6.69018514e-07
8.6615584e-10
6.68960553e-07
6.14197755e-10
6.68938908e-07
4.2377174e-10
6.68935121e-07
3.49635069e-10
6.68920452e-07
4.3660362e-10
6.68860666e-07
7.07305936e-10
6.68722209e-07
1.15540697e-09
6.68477502e-07
1.74652061e-09
6.6810872e-07
2.42567816e-09
6.67609608e-07
3.12875656e-09
6.66985262e-07
3.79420621e-09
6.66250196e-07
4.3720371e-09
6.65425421e-07
4.82859373e-09
6.64535324e-07
5.14731515e-09
6.6360492e-07
5.32682409e-09
6.62657736e-07
5.37807295e-09
6.61714181e-07
5.32195734e-09
6.6079014e-07
5.1879873e-09
6.59895512e-07
5.01361488e-09
6.59032742e-07
4.84302773e-09
6.58195705e-07
4.72402258e-09
6.57369585e-07
4.7021811e-09
6.56532335e-07
4.81281992e-09
6.556579e-07
5.07259877e-09
6.54720807e-07
5.47355604e-09
6.53701137e-07
5.98217692e-09
6.52588639e-07
6.54477909e-09
6.51384867e-07
7.09843192e-09
6.50102711e-07
7.58459704e-09
6.48763429e-07
7.96149376e-09
6.47392041e-07
8.21145066e-09
6.46012439e-07
8.34119179e-09
6.44643592e-07
8.37550883e-09
6.43297753e-07
8.3470487e-09
6.41980811e-07
8.28603269e-09
6.40694184e-07
8.213228e-09
6.39437275e-07
8.13774022e-09
6.38209539e-07
8.05912199e-09
6.37011615e-07
7.97182036e-09
6.35845485e-07
7.86965209e-09
6.34713976e-07
7.74868173e-09
6.3362006e-07
7.60804139e-09
6.32566306e-07
7.44919527e-09
6.31554623e-07
7.27459937e-09
6.30586285e-07
7.08655766e-09
6.29662083e-07
6.88663454e-09
6.28782512e-07
6.67562483e-09
6.27947894e-07
6.45379215e-09
6.27158464e-07
6.22112354e-09
6.264144e-07
5.97749486e-09
6.25715864e-07
5.72270274e-09
6.25063046e-07
5.45642101e-09
6.24456213e-07
5.17816708e-09
6.23895773e-07
4.88727968e-09
6.2338231e-07
4.58291086e-09
6.2291661e-07
4.26404436e-09
6.22499576e-07
3.92949727e-09
6.22132061e-07
3.57795225e-09
6.21814994e-07
3.20811281e-09
6.21549903e-07
2.81888437e-09
6.21339551e-07
2.40927021e-09
6.2118635e-07
1.97781245e-09
6.21092579e-07
1.52259112e-09
6.21057979e-07
1.04651266e-09
6.21080524e-07
5.5127941e-10
6.21152505e-07
4.14213671e-11
6.21300752e-07
-4.99701652e-10
6.21526091e-07
-1.05395521e-09
6.21834488e-07
-1.62512789e-09
6.22229123e-07
-2.21222909e-09
6.2271276e-07
-2.81421703e-09
6.2328859e-07
-3.42904103e-09
6.2395926e-07
-4.05380022e-09
6.24726635e-07
-4.6848445e-09
6.25591824e-07
-5.31762424e-09
6.26555024e-07
-5.94675363e-09
6.2761533e-07
-6.56612802e-09
6.28770601e-07
-7.16902631e-09
6.30017333e-07
-7.74824913e-09
6.31350579e-07
-8.29630048e-09
6.32763898e-07
-8.80562703e-09
6.3424938e-07
-9.26886306e-09
6.3579772e-07
-9.67911096e-09
6.37398362e-07
-1.00301965e-08
6.39039701e-07
-1.0316949e-08
6.40709347e-07
-1.05353959e-08
6.42394424e-07
-1.06829496e-08
6.440819e-07
-1.07585006e-08
6.45758924e-07
-1.07624615e-08
6.47413148e-07
-1.06967098e-08
6.49033022e-07
-1.05644981e-08
6.5060804e-07
-1.03702924e-08
6.52128937e-07
-1.011955e-08
6.53587822e-07
-9.81850354e-09
6.54978247e-07
-9.47391622e-09
6.56295224e-07
-9.0928263e-09
6.57535189e-07
-8.6823378e-09
6.58695926e-07
-8.2494198e-09
6.59776453e-07
-7.80072519e-09
6.60776893e-07
-7.34247225e-09
6.61698327e-07
-6.88033747e-09
6.62542646e-07
-6.41939776e-09
6.633124e-07
-5.96408374e-09
6.64010663e-07
-5.51818164e-09
6.64640895e-07
-5.08484408e-09
6.6520683e-07
-4.66661062e-09
6.65712373e-07
-4.26545778e-09
6.6616151e-07
-3.88284731e-09
6.66558237e-07
-3.51977462e-09
6.66906503e-07
-3.17683232e-09
6.67210162e-07
-2.85426531e-09
6.67472935e-07
-2.55202039e-09
6.67698386e-07
-2.26980319e-09
6.67889908e-07
-2.00712571e-09
6.68050704e-07
-1.7633463e-09
6.68183788e-07
-1.53771204e-09
6.68291977e-07
-1.32939362e-09
6.68377896e-07
-1.13751711e-09
6.68443998e-07
-9.61200078e-10
6.68492586e-07
-7.99579104e-10
6.68525821e-07
-6.51822808e-10
6.68545683e-07
-5.17114602e-10
6.68553898e-07
-3.94626946e-10
6.68551889e-07
-2.83517391e-10
6.68540786e-07
-1.8295645e-10
6.68521497e-07
-9.21540824e-11
6.68494698e-07
-1.02979098e-11
6.68461843e-07
6.31165483e-11
6.68423716e-07
1.28796743e-10
6.68381006e-07
1.87289008e-10
6.6833428e-07
2.39183571e-10
6.68284077e-07
2.85004319e-10
6.68230914e-07
3.25261921e-10
6.68175252e-07
3.60438613e-10
6.68117514e-07
3.90993281e-10
6.68058091e-07
4.17357996e-10
6.67997339e-07
4.39930772e-10
6.6793558e-07
4.59077763e-10
6.67873102e-07
4.75133038e-10
6.67810162e-07
4.88399264e-10
6.67746981e-07
4.99149259e-10
6.67683753e-07
5.07630179e-10
6.67620644e-07
5.14064946e-10
6.67557798e-07
5.18655766e-10
6.67495335e-07
5.21585944e-10
6.67433359e-07
5.23022438e-10
6.67371961e-07
5.23116649e-10
6.67311215e-07
5.22006638e-10
6.67251189e-07
5.19818299e-10
6.67191938e-07
5.16665526e-10
6.6713351e-07
5.12651858e-10
6.67075948e-07
5.07871187e-10
6.67019286e-07
5.02407599e-10
6.66963555e-07
4.96336751e-10
6.66908778e-07
4.89726388e-10
6.66854976e-07
4.82636078e-10
6.66802164e-07
4.75118528e-10
6.66750355e-07
4.67219457e-10
6.66699559e-07
4.58978387e-10
6.6664978e-07
4.50427765e-10
6.66601026e-07
4.4159439e-10
6.66553296e-07
4.32496187e-10
6.66506594e-07
4.23153993e-10
6.6646092e-07
4.13536315e-10
6.66416274e-07
4.03781286e-10
6.66372724e-07
3.93251268e-10
6.66330309e-07
3.84350141e-10
3.66523526e-10
6.66672694e-07
-6.58119782e-11
6.66710246e-07
-2.77702164e-10
6.66798823e-07
-5.84749543e-10
6.66958307e-07
-9.92293229e-10
6.67204625e-07
-1.47635625e-09
6.67544082e-07
-1.97735922e-09
6.67968253e-07
-2.40878457e-09
6.68452164e-07
-2.67945265e-09
6.68957658e-07
-2.72256152e-09
6.69440787e-07
-2.51546928e-09
6.69860213e-07
-2.08161852e-09
6.7018431e-07
-1.479327e-09
6.70395531e-07
-7.8572548e-10
6.70491239e-07
-8.10006082e-11
6.70475077e-07
5.63791774e-10
6.70370145e-07
1.09570235e-09
6.70200012e-07
1.48208856e-09
6.69990034e-07
1.71058772e-09
6.69765259e-07
1.78488928e-09
6.69548843e-07
1.71989333e-09
6.69360845e-07
1.53828932e-09
6.69216914e-07
1.27033946e-09
6.6912649e-07
9.56579894e-10
6.69090445e-07
6.50242885e-10
6.69098912e-07
4.15304337e-10
6.69130788e-07
3.17758837e-10
6.69155668e-07
4.11723466e-10
6.69136991e-07
7.25983653e-10
6.69037223e-07
1.25517506e-09
6.68824306e-07
1.95943713e-09
6.68476911e-07
2.77307284e-09
6.67987089e-07
3.61857932e-09
6.67360117e-07
4.42117737e-09
6.66612203e-07
5.11995138e-09
6.65767027e-07
5.67376965e-09
6.64852126e-07
6.06221619e-09
6.63895754e-07
6.28319651e-09
6.62924447e-07
6.34938008e-09
6.61961144e-07
6.2852598e-09
6.61023551e-07
6.12558091e-09
6.60122515e-07
5.91465068e-09
6.5926048e-07
5.70506251e-09
6.58430384e-07
5.55411906e-09
6.57615608e-07
5.51695683e-09
6.56791555e-07
5.63687246e-09
6.55929084e-07
5.93507046e-09
6.54999465e-07
6.40317463e-09
6.53979909e-07
7.00173334e-09
6.52858265e-07
7.6664227e-09
6.51635565e-07
8.32113219e-09
6.50325593e-07
8.89456909e-09
6.48951602e-07
9.33548482e-09
6.47541166e-07
9.62188628e-09
6.46120724e-07
9.76163412e-09
6.44711341e-07
9.78489104e-09
6.43326691e-07
9.73169866e-09
6.41973381e-07
9.63934347e-09
6.40652986e-07
9.53362226e-09
6.39364725e-07
9.42600129e-09
6.38107733e-07
9.31611473e-09
6.36882347e-07
9.19720645e-09
6.35690331e-07
9.06166742e-09
6.34534375e-07
8.90463747e-09
6.3341735e-07
8.72506679e-09
6.32341711e-07
8.52483478e-09
6.31309216e-07
8.30709385e-09
6.30320937e-07
8.07483701e-09
6.29377421e-07
7.83014975e-09
6.28478892e-07
7.57415397e-09
6.27625391e-07
7.30729348e-09
6.26816867e-07
7.02964773e-09
6.26053226e-07
6.74113617e-09
6.25334369e-07
6.44155939e-09
6.24660242e-07
6.13054739e-09
6.2403089e-07
5.80751909e-09
6.2344651e-07
5.4716599e-09
6.22907496e-07
5.12192478e-09
6.22414461e-07
4.75707932e-09
6.2196822e-07
4.37573847e-09
6.2156976e-07
3.97641229e-09
6.21220273e-07
3.55760021e-09
6.20921269e-07
3.11788844e-09
6.20674547e-07
2.65599148e-09
6.20481638e-07
2.1707218e-09
6.20343048e-07
1.66118121e-09
6.20261852e-07
1.12770868e-09
6.20244523e-07
5.6860853e-10
6.20305789e-07
-1.98451193e-11
6.20432591e-07
-6.26502931e-10
6.20637003e-07
-1.25836808e-09
6.20923881e-07
-1.91200576e-09
6.21298638e-07
-2.58698607e-09
6.21766073e-07
-3.28165128e-09
6.22330423e-07
-3.99339197e-09
6.22995384e-07
-4.71876104e-09
6.23763938e-07
-5.4533982e-09
6.2463823e-07
-6.19191601e-09
6.2561938e-07
-6.92790429e-09
6.26707263e-07
-7.65401019e-09
6.27900299e-07
-8.36206303e-09
6.29195292e-07
-9.04324193e-09
6.30587286e-07
-9.68829489e-09
6.32069499e-07
-1.02878398e-08
6.33633319e-07
-1.08326823e-08
6.35268388e-07
-1.131418e-08
6.36962771e-07
-1.17245802e-08
6.3870321e-07
-1.20573875e-08
6.40475442e-07
-1.23076282e-08
6.4226459e-07
-1.24720976e-08
6.44055576e-07
-1.25494864e-08
6.45833551e-07
-1.25404362e-08
6.47584302e-07
-1.24474613e-08
6.49294624e-07
-1.22748204e-08
6.50952625e-07
-1.20282929e-08
6.52547954e-07
-1.17148791e-08
6.54071957e-07
-1.13425062e-08
6.55517744e-07
-1.0919703e-08
6.56880186e-07
-1.04552683e-08
6.58155848e-07
-9.95800062e-09
6.59342875e-07
-9.43644679e-09
6.60440833e-07
-8.89868239e-09
6.61450532e-07
-8.35217199e-09
6.62373844e-07
-7.80364946e-09
6.63213506e-07
-7.25905998e-09
6.63972941e-07
-6.72351843e-09
6.64656085e-07
-6.20132562e-09
6.65267237e-07
-5.6959955e-09
6.6581092e-07
-5.210294e-09
6.66291772e-07
-4.74630995e-09
6.66714447e-07
-4.30552239e-09
6.67083539e-07
-3.88886595e-09
6.67403518e-07
-3.49681163e-09
6.6767869e-07
-3.12943711e-09
6.67913159e-07
-2.78648957e-09
6.68110809e-07
-2.46745378e-09
6.68275291e-07
-2.17160766e-09
6.68410015e-07
-1.89807028e-09
6.68518155e-07
-1.64585215e-09
6.68602655e-07
-1.41389288e-09
6.68666227e-07
-1.20108905e-09
6.68711342e-07
-1.00631562e-09
6.687402e-07
-8.28436565e-10
6.68754702e-07
-6.66325073e-10
6.68756482e-07
-5.18894415e-10
6.68746995e-07
-3.85139986e-10
6.68727618e-07
-2.64140395e-10
6.68699684e-07
-1.55022693e-10
6.68664433e-07
-5.69032247e-11
6.68623203e-07
3.0932526e-11
6.68576909e-07
1.09409964e-10
6.68526328e-07
1.79378495e-10
6.68472109e-07
2.41507665e-10
6.68414856e-07
2.96436386e-10
6.68355092e-07
3.44768454e-10
6.68293271e-07
3.87083267e-10
6.68229787e-07
4.23921927e-10
6.68164993e-07
4.55787429e-10
6.68099203e-07
4.83148025e-10
6.68032699e-07
5.06434704e-10
6.67965734e-07
5.260425e-10
6.67898536e-07
5.4233168e-10
6.67831305e-07
5.55629858e-10
6.67764221e-07
5.66233326e-10
6.6769744e-07
5.74411256e-10
6.67631098e-07
5.80406946e-10
6.67565312e-07
5.844414e-10
6.67500183e-07
5.86715042e-10
6.67435795e-07
5.87410304e-10
6.6737222e-07
5.86692325e-10
6.67309515e-07
5.84711318e-10
6.6724773e-07
5.81603819e-10
6.67186902e-07
5.77492864e-10
6.67127064e-07
5.72489854e-10
6.6706824e-07
5.66695396e-10
6.67010448e-07
5.60199184e-10
6.66953704e-07
5.53081614e-10
6.66898015e-07
5.4541443e-10
6.66843391e-07
5.37260492e-10
6.66789834e-07
5.28675301e-10
6.66737347e-07
5.1970692e-10
6.66685928e-07
5.10396958e-10
6.66635576e-07
5.00779741e-10
6.66586286e-07
4.90884176e-10
6.66538053e-07
4.80730117e-10
6.66490863e-07
4.7034319e-10
6.66444707e-07
4.59692341e-10
6.66399535e-07
4.48953669e-10
6.66355329e-07
4.37456884e-10
6.66311621e-07
4.28058225e-10
4.09440185e-10
6.66674069e-07
-7.32807159e-11
6.66713773e-07
-3.17406236e-10
6.66806125e-07
-6.77101478e-10
6.6697084e-07
-1.15700868e-09
6.67223279e-07
-1.7287955e-09
6.67569162e-07
-2.32324145e-09
6.67999738e-07
-2.83936057e-09
6.68490234e-07
-3.1699489e-09
6.69003232e-07
-3.23555935e-09
6.6949569e-07
-3.00792781e-09
6.69926865e-07
-2.51279337e-09
6.70264874e-07
-1.81733566e-09
6.70491088e-07
-1.01193923e-09
6.7060237e-07
-1.92282913e-10
6.70603323e-07
5.62838381e-10
6.70513328e-07
1.18569729e-09
6.70355692e-07
1.63972464e-09
6.70156148e-07
1.91013243e-09
6.69940084e-07
2.00095308e-09
6.69731076e-07
1.92890123e-09
6.69549753e-07
1.71961168e-09
6.6941253e-07
1.40756309e-09
6.69329795e-07
1.03931493e-09
6.69303365e-07
6.76672954e-10
6.69324001e-07
3.94668551e-10
6.69370265e-07
2.7149477e-10
6.69409917e-07
3.7207111e-10
6.69405053e-07
7.30847917e-10
6.69318312e-07
1.34191591e-09
6.69118397e-07
2.15935151e-09
6.68784257e-07
3.10721303e-09
6.68307408e-07
4.09542886e-09
6.6769206e-07
5.036525e-09
6.6695325e-07
5.858762e-09
6.66113722e-07
6.51329729e-09
6.65200474e-07
6.97546366e-09
6.64241628e-07
7.24204268e-09
6.63263931e-07
7.32707779e-09
6.62290806e-07
7.25838454e-09
6.61340656e-07
7.07573078e-09
6.60425146e-07
6.83016093e-09
6.59547503e-07
6.58270508e-09
6.58701258e-07
6.40036442e-09
6.5787009e-07
6.34812413e-09
6.57029406e-07
6.47755646e-09
6.56149839e-07
6.8146381e-09
6.55202276e-07
7.35073696e-09
6.54163417e-07
8.0405927e-09
6.53020503e-07
8.80933698e-09
6.5177396e-07
9.56767546e-09
6.50437153e-07
1.02313752e-08
6.49033289e-07
1.07393495e-08
6.47590344e-07
1.10648309e-08
6.46135547e-07
1.12164309e-08
6.44690959e-07
1.12294797e-08
6.43271235e-07
1.11514222e-08
6.41883798e-07
1.10267806e-08
6.40530798e-07
1.08866229e-08
6.39211794e-07
1.07450047e-08
6.379261e-07
1.06018092e-08
6.36674129e-07
1.04491768e-08
6.35457671e-07
1.02781255e-08
6.34279403e-07
1.0082906e-08
6.33142143e-07
9.86232593e-09
6.32048247e-07
9.61873148e-09
6.30999309e-07
9.35603113e-09
6.29996181e-07
9.07796578e-09
6.29039139e-07
8.78719119e-09
6.28128102e-07
8.48519123e-09
6.27262786e-07
8.17260992e-09
6.26442807e-07
7.84962608e-09
6.25667744e-07
7.51619947e-09
6.2493718e-07
7.17212373e-09
6.24250758e-07
6.81696893e-09
6.23608241e-07
6.45003653e-09
6.23009562e-07
6.07033829e-09
6.22454878e-07
5.67660871e-09
6.21944595e-07
5.26736299e-09
6.21479381e-07
4.84095231e-09
6.21060177e-07
4.3956164e-09
6.20688217e-07
3.92956012e-09
6.20365083e-07
3.44102195e-09
6.20092756e-07
2.92831859e-09
6.19873594e-07
2.38988433e-09
6.19710457e-07
1.82431752e-09
6.1960756e-07
1.23060618e-09
6.19568164e-07
6.08004242e-10
6.19591622e-07
-4.33035965e-11
6.19689011e-07
-7.23891561e-10
6.19863991e-07
-1.43334764e-09
6.2012309e-07
-2.17110534e-09
6.20472091e-07
-2.93598712e-09
6.20916597e-07
-3.72615682e-09
6.21462005e-07
-4.53879996e-09
6.22113303e-07
-5.37005913e-09
6.2287483e-07
-6.21492534e-09
6.23750054e-07
-7.06713989e-09
6.24741324e-07
-7.91917465e-09
6.25849595e-07
-8.76228054e-09
6.27074149e-07
-9.58661757e-09
6.28412357e-07
-1.03814499e-08
6.29859471e-07
-1.11354084e-08
6.31408495e-07
-1.18368647e-08
6.33050154e-07
-1.24743409e-08
6.3477296e-07
-1.30369862e-08
6.3656341e-07
-1.35150298e-08
6.38406293e-07
-1.39002709e-08
6.40285108e-07
-1.41864425e-08
6.42182553e-07
-1.43695428e-08
6.44081074e-07
-1.4448008e-08
6.45963418e-07
-1.442278e-08
6.47813155e-07
-1.4297198e-08
6.49615146e-07
-1.40768119e-08
6.51355924e-07
-1.37690709e-08
6.53023963e-07
-1.33829183e-08
6.54609847e-07
-1.29283899e-08
6.56106327e-07
-1.2416183e-08
6.57508286e-07
-1.18572271e-08
6.58812623e-07
-1.12623376e-08
6.6001808e-07
-1.06419042e-08
6.61125026e-07
-1.00056283e-08
6.62135217e-07
-9.36236326e-09
6.63051554e-07
-8.71998631e-09
6.63877841e-07
-8.08534683e-09
6.64618561e-07
-7.4642384e-09
6.65278673e-07
-6.86143774e-09
6.65863434e-07
-6.28075671e-09
6.66378247e-07
-5.72510631e-09
6.66828532e-07
-5.19659488e-09
6.6721963e-07
-4.69662026e-09
6.67556721e-07
-4.22595786e-09
6.67844773e-07
-3.78486272e-09
6.68088492e-07
-3.37315666e-09
6.68292307e-07
-2.99030437e-09
6.68460347e-07
-2.63549351e-09
6.68596438e-07
-2.30769929e-09
6.68704106e-07
-2.00573756e-09
6.68786571e-07
-1.72831775e-09
6.68846763e-07
-1.47408428e-09
6.68887326e-07
-1.24165264e-09
6.6891066e-07
-1.02964995e-09
6.68918967e-07
-8.36743555e-10
6.68914295e-07
-6.61652954e-10
6.68898545e-07
-5.03143855e-10
6.68873407e-07
-3.60002161e-10
6.68840325e-07
-2.3105883e-10
6.6880049e-07
-1.15186908e-10
6.68755012e-07
-1.14261392e-11
6.68704264e-07
8.16805644e-11
6.68649106e-07
1.64568603e-10
6.68590283e-07
2.38201042e-10
6.68528467e-07
3.03324173e-10
6.68464219e-07
3.60684462e-10
6.68398015e-07
4.10971824e-10
6.68330279e-07
4.54819856e-10
6.68261383e-07
4.92817874e-10
6.68191657e-07
5.25512799e-10
6.68121395e-07
5.53410224e-10
6.68050855e-07
5.76974691e-10
6.67980265e-07
5.96632227e-10
6.67909825e-07
6.12771791e-10
6.67839707e-07
6.25747832e-10
6.67770059e-07
6.35881348e-10
6.67701007e-07
6.43464002e-10
6.67632655e-07
6.48759028e-10
6.67565091e-07
6.52004898e-10
6.67498389e-07
6.53417018e-10
6.67432609e-07
6.53190595e-10
6.673678e-07
6.5150149e-10
6.67304002e-07
6.48508995e-10
6.67241248e-07
6.4435738e-10
6.67179565e-07
6.39176238e-10
6.67118972e-07
6.33082688e-10
6.67059485e-07
6.26182395e-10
6.67001115e-07
6.18569525e-10
6.66943868e-07
6.10328556e-10
6.66887747e-07
6.01534998e-10
6.66832753e-07
5.9225511e-10
6.6677888e-07
5.82547541e-10
6.66726124e-07
5.72463196e-10
6.66674475e-07
5.62046309e-10
6.66623921e-07
5.51333591e-10
6.66574449e-07
5.40356373e-10
6.66526042e-07
5.29136855e-10
6.66478681e-07
5.17704173e-10
6.66432346e-07
5.06026839e-10
6.66387011e-07
4.94289262e-10
6.66342712e-07
4.81755421e-10
6.66299454e-07
4.71316818e-10
4.50728823e-10
6.66674226e-07
-8.08065406e-11
6.66714812e-07
-3.57992704e-10
6.66809483e-07
-7.71772416e-10
6.66978947e-07
-1.32647283e-09
6.6723961e-07
-1.98945825e-09
6.67598068e-07
-2.68169962e-09
6.68045796e-07
-3.28708806e-09
6.68557267e-07
-3.68142045e-09
6.69093443e-07
-3.77173495e-09
6.69609317e-07
-3.52380189e-09
6.70062261e-07
-2.96573764e-09
6.70418927e-07
-2.17400151e-09
6.70659152e-07
-1.25216384e-09
6.7077541e-07
-3.08541118e-10
6.70782599e-07
5.5564977e-10
6.70695973e-07
1.27232325e-09
6.70539634e-07
1.79606317e-09
6.70340324e-07
2.10944234e-09