/*--------------------------------*- C++ -*----------------------------------*\
| =========                 |                                                 |
| \\      /  F ield         | OpenFOAM: The Open Source CFD Toolbox           |
|  \\    /   O peration     | Version:  v2012                                 |
|   \\  /    A nd           | Website:  www.openfoam.com                      |
|    \\/     M anipulation  |                                                 |
\*---------------------------------------------------------------------------*/
FoamFile
{
    version     2.0;
    format      ascii;
    class       surfaceScalarField;
    location    "2.99";
    object      phiHbyA;
}
// * * * * * * * * * * * * * * * * * * * * * * * * * * * * * * * * * * * * * //

dimensions      [0 3 -1 0 0 0 0];
oriented        oriented;


internalField   nonuniform List<scalar> 
56481
(
6.66682798e-07
-4.38315982e-11
6.66736691e-07
-1.59525156e-10
6.66840903e-07
-3.15051803e-10
6.67008758e-07
-5.15966005e-10
6.67249712e-07
-7.4952856e-10
6.67564442e-07
-9.83982718e-10
6.67941462e-07
-1.17557034e-09
6.68356933e-07
-1.28038455e-09
6.6877826e-07
-1.26834112e-09
6.69170073e-07
-1.13208105e-09
6.69500287e-07
-8.86590468e-10
6.69744436e-07
-5.61986066e-10
6.69886745e-07
-1.93816646e-10
6.6994858e-07
1.76213844e-10
6.69940828e-07
5.14499409e-10
6.69872444e-07
7.93423832e-10
6.69756256e-07
9.93854177e-10
6.69607767e-07
1.10812928e-09
6.69443072e-07
1.13766093e-09
6.69277067e-07
1.09133466e-09
6.69122338e-07
9.83091248e-10
6.68986863e-07
8.31441852e-10
6.6887511e-07
6.61302438e-10
6.68790746e-07
5.00302848e-10
6.6872803e-07
3.83502007e-10
6.68671111e-07
3.44479178e-10
6.68595071e-07
4.09024308e-10
6.68470565e-07
5.88774872e-10
6.68269737e-07
8.77796011e-10
6.67970984e-07
1.25331081e-09
6.67561844e-07
1.68042039e-09
6.67039908e-07
2.1192293e-09
6.66411908e-07
2.53188779e-09
6.65691535e-07
2.88778476e-09
6.64896717e-07
3.16625958e-09
6.64047095e-07
3.35709748e-09
6.63162082e-07
3.45961253e-09
6.62259545e-07
3.48122588e-09
6.61354824e-07
3.43619594e-09
6.60459758e-07
3.34471091e-09
6.59581497e-07
3.23208878e-09
6.58721195e-07
3.12748926e-09
6.57873055e-07
3.06149405e-09
6.57024336e-07
3.06225953e-09
6.56156866e-07
3.15061526e-09
6.55250098e-07
3.33523448e-09
6.54285155e-07
3.60946014e-09
6.53248807e-07
3.95123002e-09
6.5213628e-07
4.32673736e-09
6.50952105e-07
4.69723479e-09
6.49708878e-07
5.02722304e-09
6.48424373e-07
5.29164456e-09
6.4711791e-07
5.47995341e-09
6.45807012e-07
5.59599591e-09
6.44505164e-07
5.65410722e-09
6.43221064e-07
5.6730959e-09
6.41959254e-07
5.67032741e-09
6.40721582e-07
5.65775811e-09
6.39508855e-07
5.64073559e-09
6.38322084e-07
5.61921661e-09
6.37163082e-07
5.59025999e-09
6.36034433e-07
5.55050484e-09
6.34939109e-07
5.49775023e-09
6.33880009e-07
5.43140423e-09
6.32859637e-07
5.35208991e-09
6.31879971e-07
5.2609324e-09
6.30942505e-07
5.15895763e-09
6.30048358e-07
5.04678816e-09
6.29198391e-07
4.92463972e-09
6.28393288e-07
4.79245578e-09
6.27633607e-07
4.6500465e-09
6.26919815e-07
4.49718424e-09
6.26252319e-07
4.33362726e-09
6.25631521e-07
4.15910288e-09
6.25057882e-07
3.97330083e-09
6.24532029e-07
3.77586869e-09
6.24054976e-07
3.56638749e-09
6.23628832e-07
3.34432054e-09
6.23255534e-07
3.10861024e-09
6.22934876e-07
2.85742475e-09
6.22669032e-07
2.58876361e-09
6.22459115e-07
2.30328992e-09
6.22305249e-07
2.00070822e-09
6.22207696e-07
1.67947375e-09
6.22165882e-07
1.33915288e-09
6.22177915e-07
9.80676681e-10
6.22240679e-07
6.0664997e-10
6.22349503e-07
2.21108688e-10
6.22512889e-07
-1.78870487e-10
6.22763389e-07
-5.83685368e-10
6.23098784e-07
-9.91466972e-10
6.23520042e-07
-1.40846628e-09
6.24027679e-07
-1.83367141e-09
6.24622242e-07
-2.26571199e-09
6.25304091e-07
-2.70339654e-09
6.26073105e-07
-3.14449733e-09
6.26928606e-07
-3.58589008e-09
6.27869283e-07
-4.02396919e-09
6.28893044e-07
-4.45472464e-09
6.29996884e-07
-4.87377465e-09
6.3117681e-07
-5.27646965e-09
6.32427818e-07
-5.6580107e-09
6.33743905e-07
-6.01359091e-09
6.35118115e-07
-6.33854162e-09
6.36542621e-07
-6.62850322e-09
6.38008827e-07
-6.8795756e-09
6.39507509e-07
-7.0884832e-09
6.41028966e-07
-7.25268146e-09
6.4256321e-07
-7.37046162e-09
6.44100164e-07
-7.44099889e-09
6.45629871e-07
-7.46437751e-09
6.47142696e-07
-7.4415581e-09
6.48629523e-07
-7.37433544e-09
6.50081919e-07
-7.26525473e-09
6.51492276e-07
-7.1174927e-09
6.5285391e-07
-6.9347447e-09
6.54161134e-07
-6.72109014e-09
6.55409285e-07
-6.48084548e-09
6.56594724e-07
-6.21844325e-09
6.57714811e-07
-5.9383096e-09
6.58767852e-07
-5.6447474e-09
6.59753028e-07
-5.34185683e-09
6.6067031e-07
-5.03345751e-09
6.61520373e-07
-4.72304077e-09
6.62304495e-07
-4.41372563e-09
6.63024468e-07
-4.10824744e-09
6.63682498e-07
-3.80895154e-09
6.64281126e-07
-3.51779354e-09
6.64823142e-07
-3.23636178e-09
6.65311514e-07
-2.96589939e-09
6.65749328e-07
-2.70732731e-09
6.6613973e-07
-2.4612808e-09
6.66485886e-07
-2.22814183e-09
6.66790937e-07
-2.00806943e-09
6.67057973e-07
-1.80103713e-09
6.67290012e-07
-1.60686449e-09
6.6748998e-07
-1.4252457e-09
6.67660701e-07
-1.25578277e-09
6.67804889e-07
-1.09801368e-09
6.67925142e-07
-9.51436906e-10
6.68023935e-07
-8.15539127e-10
6.68103611e-07
-6.89818469e-10
6.68166354e-07
-5.73803647e-10
6.68214133e-07
-4.67058071e-10
6.68248635e-07
-3.69173979e-10
6.68271223e-07
-2.79751708e-10
6.68282965e-07
-1.98362586e-10
6.68284716e-07
-1.24507394e-10
6.68277243e-07
-5.76160827e-11
6.68261516e-07
2.98861993e-12
6.68240169e-07
5.71896538e-11
6.68213445e-07
1.06132054e-10
6.68181721e-07
1.49696955e-10
6.6814536e-07
1.88348999e-10
6.68104819e-07
2.22458167e-10
6.68060585e-07
2.52393584e-10
6.68013146e-07
2.7855086e-10
6.67962986e-07
3.01295201e-10
6.6791058e-07
3.20949753e-10
6.67856353e-07
3.37831039e-10
6.67800683e-07
3.52212186e-10
6.67743899e-07
3.64332044e-10
6.67686291e-07
3.74400854e-10
6.6762811e-07
3.82606243e-10
6.67569572e-07
3.89116644e-10
6.67510862e-07
3.94085516e-10
6.6745214e-07
3.9765354e-10
6.67393543e-07
3.99950793e-10
6.6733519e-07
4.01097158e-10
6.67277186e-07
4.0120366e-10
6.67219622e-07
4.00372964e-10
6.67162579e-07
3.98699127e-10
6.67106128e-07
3.962685e-10
6.67050333e-07
3.93159966e-10
6.6699525e-07
3.89444569e-10
6.66940927e-07
3.85186381e-10
6.66887408e-07
3.80442777e-10
6.66834728e-07
3.75264245e-10
6.66782921e-07
3.69695522e-10
6.66732015e-07
3.63775617e-10
6.66682036e-07
3.57538312e-10
6.66633008e-07
3.51011434e-10
6.66584953e-07
3.4421796e-10
6.66537895e-07
3.37173844e-10
6.66491862e-07
3.29895385e-10
6.66446896e-07
3.22356962e-10
6.66403038e-07
3.14655325e-10
6.66360448e-07
3.06260588e-10
6.66319063e-07
2.99083811e-10
2.84294233e-10
6.66670801e-07
-4.83689186e-11
6.66706773e-07
-1.95946943e-10
6.66792703e-07
-4.01589632e-10
6.66946806e-07
-6.70783023e-10
6.67184093e-07
-9.87603674e-10
6.67510125e-07
-1.3108721e-09
6.67915764e-07
-1.58212585e-09
6.68375883e-07
-1.74144819e-09
6.68853174e-07
-1.74657043e-09
6.6930548e-07
-1.58528803e-09
6.69693894e-07
-1.27584743e-09
6.69989794e-07
-8.58640988e-10
6.70180305e-07
-3.84934703e-10
6.70258829e-07
9.68601787e-11
6.70230696e-07
5.42083806e-10
6.70118524e-07
9.05098498e-10
6.69946515e-07
1.16545713e-09
6.69739179e-07
1.31516836e-09
6.69518844e-07
1.3577845e-09
6.69305535e-07
1.30449978e-09
6.69116488e-07
1.17204945e-09
6.689654e-07
9.82489464e-10
6.68861889e-07
7.64824185e-10
6.68805625e-07
5.56672323e-10
6.687868e-07
4.0255061e-10
6.68785355e-07
3.46265762e-10
6.68772487e-07
4.22347046e-10
6.68713909e-07
6.4792609e-10
6.68575054e-07
1.01735325e-09
6.68326988e-07
1.50221407e-09
6.67951093e-07
2.05729252e-09
6.67441401e-07
2.63003874e-09
6.66804298e-07
3.17025205e-09
6.66056125e-07
3.63736359e-09
6.65219719e-07
4.00421525e-09
6.6432089e-07
4.25761933e-09
6.63385502e-07
4.39683164e-09
6.62437379e-07
4.43131131e-09
6.61496822e-07
4.37883916e-09
6.60579336e-07
4.26439709e-09
6.59694273e-07
4.11945416e-09
6.58843419e-07
3.98074008e-09
6.58019911e-07
3.88748202e-09
6.57208157e-07
3.8765725e-09
6.56385311e-07
3.97609504e-09
6.55524546e-07
4.19870302e-09
6.54599759e-07
4.53701526e-09
6.53590743e-07
4.96307083e-09
6.52487495e-07
5.43285587e-09
6.51292387e-07
5.89524448e-09
6.50019494e-07
6.30303423e-09
6.48691245e-07
6.62281344e-09
6.47333431e-07
6.84067323e-09
6.45970094e-07
6.96220927e-09
6.44619744e-07
7.00728972e-09
6.43293769e-07
7.00184615e-09
6.41997068e-07
6.96973412e-09
6.40730199e-07
6.92725181e-09
6.39491978e-07
6.8814883e-09
6.38281578e-07
6.83204678e-09
6.37099599e-07
6.77456013e-09
6.35948119e-07
6.70418739e-09
6.3483011e-07
6.61783861e-09
6.33748675e-07
6.51479088e-09
6.32706482e-07
6.39610314e-09
6.31705526e-07
6.26357564e-09
6.30747164e-07
6.11887282e-09
6.29832292e-07
5.96308007e-09
6.28961528e-07
5.79669238e-09
6.28135339e-07
5.61980517e-09
6.27354108e-07
5.4323131e-09
6.26618168e-07
5.23403993e-09
6.25927831e-07
5.02476449e-09
6.25283438e-07
4.80418749e-09
6.24685421e-07
4.57190717e-09
6.24134383e-07
4.32739955e-09
6.23631178e-07
4.06999705e-09
6.2317694e-07
3.79888361e-09
6.22772805e-07
3.51299516e-09
6.22419443e-07
3.21096522e-09
6.22116749e-07
2.89157194e-09
6.21865752e-07
2.55431597e-09
6.21666947e-07
2.19943312e-09
6.21521092e-07
1.82510519e-09
6.21430563e-07
1.42927451e-09
6.21398313e-07
1.01231492e-09
6.21429977e-07
5.74193039e-10
6.21536455e-07
1.13796947e-10
6.21707661e-07
-3.51056093e-10
6.21951246e-07
-8.28168267e-10
6.22274982e-07
-1.31626134e-09
6.22682406e-07
-1.81708749e-09
6.23177461e-07
-2.33001518e-09
6.23762937e-07
-2.85258165e-09
6.24440464e-07
-3.38243207e-09
6.2521104e-07
-3.91669622e-09
6.26074995e-07
-4.45158315e-09
6.27031792e-07
-4.98262119e-09
6.280799e-07
-5.50480568e-09
6.29216695e-07
-6.01265764e-09
6.30438365e-07
-6.50033822e-09
6.31739852e-07
-6.96180193e-09
6.33114846e-07
-7.39098586e-09
6.34555816e-07
-7.78199897e-09
6.36054092e-07
-8.12933922e-09
6.37599984e-07
-8.42808709e-09
6.39182958e-07
-8.67411934e-09
6.40791841e-07
-8.86425242e-09
6.42415067e-07
-8.99638355e-09
6.44040944e-07
-9.06955957e-09
6.45657923e-07
-9.08401175e-09
6.47254869e-07
-9.04111348e-09
6.48821307e-07
-8.9433189e-09
6.50347631e-07
-8.79404531e-09
6.51825272e-07
-8.59750917e-09
6.53246824e-07
-8.35856811e-09
6.54606111e-07
-8.08253736e-09
6.5589822e-07
-7.77499391e-09
6.57119478e-07
-7.44161578e-09
6.58267404e-07
-7.08802346e-09
6.59340632e-07
-6.71963277e-09
6.60338801e-07
-6.34155646e-09
6.61262452e-07
-5.95851132e-09
6.62112894e-07
-5.57476411e-09
6.62892091e-07
-5.19408446e-09
6.63602533e-07
-4.81973817e-09
6.64247127e-07
-4.45448752e-09
6.64829092e-07
-4.10059983e-09
6.65351866e-07
-3.75988198e-09
6.65819021e-07
-3.43371355e-09
6.66234197e-07
-3.12308059e-09
6.66601037e-07
-2.8286243e-09
6.66923144e-07
-2.55068464e-09
6.67204041e-07
-2.28934038e-09
6.6744714e-07
-2.04445533e-09
6.67655722e-07
-1.81571618e-09
6.67832917e-07
-1.60266686e-09
6.67981693e-07
-1.40474756e-09
6.68104849e-07
-1.22132531e-09
6.68205e-07
-1.05171755e-09
6.6828457e-07
-8.95216041e-10
6.68345769e-07
-7.5110734e-10
6.6839059e-07
-6.1870238e-10
6.68420828e-07
-4.97365869e-10
6.68438113e-07
-3.86523438e-10
6.68443937e-07
-2.8563673e-10
6.68439686e-07
-1.94167601e-10
6.68426676e-07
-1.11546073e-10
6.68406217e-07
-3.71924171e-11
6.68378994e-07
3.01697226e-11
6.68345579e-07
9.05887749e-11
6.6830719e-07
1.4450503e-10
6.68264484e-07
1.9239151e-10
6.68218084e-07
2.34743529e-10
6.68168496e-07
2.72047816e-10
6.68116163e-07
3.04732179e-10
6.68061508e-07
3.33216951e-10
6.68004916e-07
3.57901512e-10
6.67946734e-07
3.79149269e-10
6.67887291e-07
3.97293662e-10
6.67826891e-07
4.12634559e-10
6.67765805e-07
4.25440818e-10
6.67704278e-07
4.35953394e-10
6.6764252e-07
4.44389811e-10
6.67580717e-07
4.50946175e-10
6.67519028e-07
4.55800878e-10
6.67457593e-07
4.59116564e-10
6.67396529e-07
4.61042462e-10
6.67335939e-07
4.61714996e-10
6.67275911e-07
4.61259533e-10
6.67216521e-07
4.59791174e-10
6.67157834e-07
4.57414662e-10
6.67099905e-07
4.54225593e-10
6.67042782e-07
4.50310864e-10
6.66986507e-07
4.45748386e-10
6.66931113e-07
4.4060822e-10
6.6687663e-07
4.34952999e-10
6.66823085e-07
4.28837714e-10
6.66770497e-07
4.22310945e-10
6.66718885e-07
4.15414861e-10
6.66668264e-07
4.08185982e-10
6.66618648e-07
4.0065426e-10
6.66570049e-07
3.92844246e-10
6.66522477e-07
3.84772151e-10
6.66475942e-07
3.76456633e-10
6.66430457e-07
3.67868671e-10
6.66385992e-07
3.59141993e-10
6.66342578e-07
3.4970933e-10
6.66299687e-07
3.41941577e-10
3.26226981e-10
6.66677409e-07
-5.8875315e-11
6.667209e-07
-2.39177097e-10
6.66814803e-07
-4.95151449e-10
6.66976195e-07
-8.31738334e-10
6.67218039e-07
-1.22892451e-09
6.67544502e-07
-1.63675241e-09
6.6794643e-07
-1.98344069e-09
6.68399964e-07
-2.19435784e-09
6.688699e-07
-2.21588463e-09
6.69316383e-07
-2.03117006e-09
6.69702147e-07
-1.66104556e-09
6.69998126e-07
-1.1541074e-09
6.70187019e-07
-5.73399126e-10
6.70268834e-07
1.58762802e-11
6.70262574e-07
5.48626025e-10
6.70176203e-07
9.91686061e-10
6.70028999e-07
1.31281706e-09
6.69842819e-07
1.50142003e-09
6.6963974e-07
1.56088073e-09
6.69440015e-07
1.50420699e-09
6.69261037e-07
1.35098783e-09
6.691164e-07
1.12707342e-09
6.69014368e-07
8.66787712e-10
6.68956149e-07
6.14790459e-10
6.68934228e-07
4.24316368e-10
6.68930145e-07
3.50123026e-10
6.68915162e-07
4.37029848e-10
6.68855046e-07
7.07668348e-10
6.68716241e-07
1.15570365e-09
6.68471167e-07
1.74675044e-09
6.68101998e-07
2.42584085e-09
6.67602479e-07
3.12885181e-09
6.66977705e-07
3.79423349e-09
6.6624219e-07
4.37199595e-09
6.65416946e-07
4.82848405e-09
6.64526359e-07
5.14713739e-09
6.63595449e-07
5.32657943e-09
6.62647741e-07
5.37776343e-09
6.61703647e-07
5.32158606e-09
6.60779051e-07
5.18755858e-09
6.59883856e-07
5.01313427e-09
6.59020507e-07
4.8425017e-09
6.58182878e-07
4.72345804e-09
6.57356153e-07
4.701585e-09
6.56518284e-07
4.81219911e-09
6.55643216e-07
5.07196003e-09
6.54705476e-07
5.47290619e-09
6.53685143e-07
5.98152271e-09
6.5257197e-07
6.54412698e-09
6.51367511e-07
7.09778789e-09
6.50084658e-07
7.58396655e-09
6.48744672e-07
7.96088188e-09
6.47372578e-07
8.21086223e-09
6.4599227e-07
8.34063162e-09
6.44622721e-07
8.37498173e-09
6.43276186e-07
8.34655953e-09
6.41958556e-07
8.28558618e-09
6.40671252e-07
8.21282855e-09
6.3941368e-07
8.13739177e-09
6.38185293e-07
8.05882776e-09
6.36986735e-07
7.9715828e-09
6.35819987e-07
7.86947281e-09
6.34687879e-07
7.74856145e-09
6.33593385e-07
7.60798001e-09
6.32539073e-07
7.44919189e-09
6.31526855e-07
7.27465233e-09
6.30558005e-07
7.08666464e-09
6.29633316e-07
6.8867926e-09
6.28753282e-07
6.67583057e-09
6.27918227e-07
6.45404177e-09
6.27128384e-07
6.22141304e-09
6.26383934e-07
5.9778201e-09
6.25685038e-07
5.72305965e-09
6.25031885e-07
5.4568057e-09
6.24424743e-07
5.17857601e-09
6.23864018e-07
4.88770978e-09
6.23350295e-07
4.58335966e-09
6.22884358e-07
4.26451015e-09
6.22467109e-07
3.92997928e-09
6.22099402e-07
3.578451e-09
6.21782163e-07
3.20862985e-09
6.21516916e-07
2.81942236e-09
6.21306419e-07
2.40983489e-09
6.21153085e-07
1.97841787e-09
6.21059199e-07
1.52325943e-09
6.2102452e-07
1.04727603e-09
6.21047038e-07
5.52151899e-10
6.21118913e-07
4.23780112e-11
6.21267121e-07
-4.9867383e-10
6.21492374e-07
-1.05285937e-09
6.21800701e-07
-1.62393015e-09
6.22195265e-07
-2.21091951e-09
6.22678822e-07
-2.81278689e-09
6.23254561e-07
-3.42747901e-09
6.23925126e-07
-4.05209461e-09
6.24692381e-07
-4.68298475e-09
6.25557432e-07
-5.31560215e-09
6.26520472e-07
-5.94456357e-09
6.27580596e-07
-6.56376719e-09
6.28735661e-07
-7.16649523e-09
6.29982164e-07
-7.74555212e-09
6.31315156e-07
-8.29344595e-09
6.32728199e-07
-8.80262756e-09
6.34213386e-07
-9.26573537e-09
6.35761415e-07
-9.67587573e-09
6.37361733e-07
-1.00268779e-08
6.3900274e-07
-1.03135741e-08
6.40672052e-07
-1.05319939e-08
6.42356797e-07
-1.06795508e-08
6.4404395e-07
-1.07551356e-08
6.45720664e-07
-1.07591603e-08
6.47374596e-07
-1.06935005e-08
6.489942e-07
-1.05614064e-08
6.50568974e-07
-1.03673409e-08
6.52089656e-07
-1.01167576e-08
6.53548354e-07
-9.81588519e-09
6.54938623e-07
-9.47148284e-09
6.56255475e-07
-9.09058482e-09
6.57495344e-07
-8.68029137e-09
6.58656013e-07
-8.24756815e-09
6.59736498e-07
-7.799065e-09
6.6073692e-07
-7.34099762e-09
6.61658357e-07
-6.8790404e-09
6.62502698e-07
-6.41826863e-09
6.63272492e-07
-5.96311175e-09
6.63970807e-07
-5.51735519e-09
6.64601102e-07
-5.08415119e-09
6.6516711e-07
-4.66603918e-09
6.65672733e-07
-4.26499582e-09
6.66121954e-07
-3.88248323e-09
6.6651877e-07
-3.5194973e-09
6.66867126e-07
-3.17663128e-09
6.67170875e-07
-2.85413072e-09
6.67433738e-07
-2.55194313e-09
6.67659279e-07
-2.26977489e-09
6.67850887e-07
-2.00713874e-09
6.68011768e-07
-1.76339372e-09
6.68144934e-07
-1.53778759e-09
6.68253202e-07
-1.32949169e-09
6.68339196e-07
-1.13763267e-09
6.68405371e-07
-9.61328586e-10
6.68454028e-07
-7.99716381e-10
6.68487328e-07
-6.51964918e-10
6.68507252e-07
-5.17257882e-10
6.68515527e-07
-3.94768253e-10
6.68513575e-07
-2.83654512e-10
6.68502526e-07
-1.83088475e-10
6.68483289e-07
-9.2281561e-11
6.68456538e-07
-1.04226289e-11
6.68423726e-07
6.29940832e-11
6.68385639e-07
1.28676108e-10
6.68342966e-07
1.87171127e-10
6.68296276e-07
2.39068882e-10
6.68246107e-07
2.84892907e-10
6.68192975e-07
3.25153931e-10
6.68137342e-07
3.60334285e-10
6.68079631e-07
3.90892806e-10
6.68020233e-07
4.17261488e-10
6.67959504e-07
4.39838287e-10
6.67897766e-07
4.58989302e-10
6.67835309e-07
4.75048559e-10
6.67772386e-07
4.88318694e-10
6.67709223e-07
4.99072499e-10
6.6764601e-07
5.07557103e-10
6.67582916e-07
5.13995409e-10
6.67520083e-07
5.18589607e-10
6.67457632e-07
5.21522991e-10
6.67395668e-07
5.22962519e-10
6.6733428e-07
5.23059591e-10
6.67273544e-07
5.21952275e-10
6.67213526e-07
5.19766474e-10
6.67154283e-07
5.1661609e-10
6.67095863e-07
5.12604675e-10
6.67038307e-07
5.07826132e-10
6.66981651e-07
5.02364559e-10
6.66925925e-07
4.96295627e-10
6.66871153e-07
4.89687094e-10
6.66817355e-07
4.82598539e-10
6.66764547e-07
4.75082684e-10
6.66712741e-07
4.67185265e-10
6.66661947e-07
4.5894582e-10
6.66612171e-07
4.50396817e-10
6.66563418e-07
4.4156508e-10
6.6651569e-07
4.32468566e-10
6.66468987e-07
4.23128156e-10
6.66423314e-07
4.1351241e-10
6.66378664e-07
4.03759634e-10
6.66335123e-07
3.93232374e-10
6.66292651e-07
3.84335893e-10
3.66515775e-10
6.66672558e-07
-6.47840778e-11
6.66709954e-07
-2.76680843e-10
6.66798354e-07
-5.83734142e-10
6.66957671e-07
-9.91282144e-10
6.67203838e-07
-1.47534841e-09
6.6754315e-07
-1.97635251e-09
6.67967171e-07
-2.40777642e-09
6.68450926e-07
-2.67844112e-09
6.68956263e-07
-2.72154578e-09
6.69439233e-07
-2.51444944e-09
6.69858494e-07
-2.08059511e-09
6.70182427e-07
-1.47830053e-09
6.70393505e-07
-7.8469841e-10
6.7048891e-07
-7.99960057e-11
6.70472614e-07
5.648586e-10
6.70367508e-07
1.09679315e-09
6.70197179e-07
1.48318679e-09
6.69986999e-07
1.71168558e-09
6.69762012e-07
1.78598033e-09
6.69545375e-07
1.72097204e-09
6.69357145e-07
1.53935099e-09
6.69212972e-07
1.27137985e-09
6.69122292e-07
9.57595101e-10
6.69085977e-07
6.51230394e-10
6.69094157e-07
4.16265152e-10
6.6912573e-07
3.18698595e-10
6.69150294e-07
4.12648465e-10
6.69131284e-07
7.2689727e-10
6.69031166e-07
1.25607828e-09
6.68817882e-07
1.96032868e-09
6.684701e-07
2.7739508e-09
6.6797987e-07
3.61944244e-09
6.6735247e-07
4.42202558e-09
6.66604106e-07
5.12078572e-09
6.65758462e-07
5.67459215e-09
6.64843073e-07
6.06302973e-09
6.63886197e-07
6.28400473e-09
6.6291437e-07
6.35018717e-09
6.61950534e-07
6.28607011e-09
6.61012393e-07
6.12639845e-09
6.60110799e-07
5.91547863e-09
6.59248194e-07
5.70590302e-09
6.58417514e-07
5.55497333e-09
6.57602143e-07
5.5178253e-09
6.56777481e-07
5.6377549e-09
6.55914385e-07
5.93596613e-09
6.54984128e-07
6.40408249e-09
6.53963918e-07
7.00265253e-09
6.52841607e-07
7.6673529e-09
6.51618226e-07
8.3220739e-09
6.50307564e-07
8.89552359e-09
6.48932876e-07
9.33645388e-09
6.47521741e-07
9.62287175e-09
6.46100599e-07
9.76263761e-09
6.44690521e-07
9.78591362e-09
6.43305181e-07
9.73274076e-09
6.41951189e-07
9.6404049e-09
6.40630123e-07
9.53470231e-09
6.39341202e-07
9.42709886e-09
6.38083562e-07
9.31722842e-09
6.36857543e-07
9.19833463e-09
6.35664912e-07
9.06280822e-09
6.34508357e-07
8.90578875e-09
6.33390752e-07
8.7262261e-09
6.32314553e-07
8.52599936e-09
6.3128152e-07
8.30826066e-09
6.30292725e-07
8.07600276e-09
6.29348718e-07
7.83131093e-09
6.28449721e-07
7.57530693e-09
6.27595776e-07
7.30843449e-09
6.26786835e-07
7.03077309e-09
6.26022802e-07
6.74224227e-09
6.25303579e-07
6.44264283e-09
6.24629113e-07
6.13160512e-09
6.23999448e-07
5.8085485e-09
6.2341478e-07
5.47265903e-09
6.22875504e-07
5.12289237e-09
6.22382231e-07
4.75801503e-09
6.21935775e-07
4.37664303e-09
6.21537125e-07
3.97728761e-09
6.21187469e-07
3.55844944e-09
6.20888317e-07
3.11871576e-09
6.20641469e-07
2.65680216e-09
6.20448457e-07
2.17152146e-09
6.20309793e-07
1.66197212e-09
6.20228537e-07
1.1284813e-09
6.20211148e-07
5.69345098e-10
6.20272292e-07
-1.9169047e-11
6.20399049e-07
-6.25739643e-10
6.20603421e-07
-1.25753162e-09
6.20890242e-07
-1.91110011e-09
6.2126494e-07
-2.58599933e-09
6.2173231e-07
-3.28057056e-09
6.22296585e-07
-3.99220475e-09
6.22961455e-07
-4.71745516e-09
6.23729899e-07
-5.45196235e-09
6.2460406e-07
-6.19034045e-09
6.25585055e-07
-6.92618148e-09
6.26672754e-07
-7.65213536e-09
6.27865579e-07
-8.36003478e-09
6.29160331e-07
-9.04106275e-09
6.30552056e-07
-9.6859716e-09
6.32033971e-07
-1.02853838e-08
6.33597468e-07
-1.08301095e-08
6.35232194e-07
-1.13115106e-08
6.36926217e-07
-1.17218384e-08
6.38666285e-07
-1.20546008e-08
6.40438143e-07
-1.23048264e-08
6.42226919e-07
-1.24693116e-08
6.44017542e-07
-1.25467473e-08
6.45795169e-07
-1.2537774e-08
6.47545595e-07
-1.24449037e-08
6.49255618e-07
-1.22723923e-08
6.50913349e-07
-1.20260152e-08
6.52508443e-07
-1.17127685e-08
6.54032245e-07
-1.13405747e-08
6.55477867e-07
-1.09179583e-08
6.56840179e-07
-1.04537136e-08
6.58115746e-07
-9.95663509e-09
6.59302709e-07
-9.43526619e-09
6.60400632e-07
-8.89767944e-09
6.61410325e-07
-8.35133706e-09
6.62333653e-07
-7.80297112e-09
6.63173352e-07
-7.25852557e-09
6.6393284e-07
-6.72311454e-09
6.64616052e-07
-6.20103854e-09
6.65227283e-07
-5.69581163e-09
6.65771055e-07
-5.21020008e-09
6.66252002e-07
-4.74629334e-09
6.66674777e-07
-4.30557122e-09
6.6704397e-07
-3.88896924e-09
6.67364052e-07
-3.49695935e-09
6.67639327e-07
-3.12962021e-09
6.67873897e-07
-2.78669996e-09
6.68071647e-07
-2.46768433e-09
6.68236225e-07
-2.17185211e-09
6.68371042e-07
-1.89832323e-09
6.68479272e-07
-1.64610895e-09
6.68563857e-07
-1.41414957e-09
6.6862751e-07
-1.20134229e-09
6.68672703e-07
-1.00656271e-09
6.68701635e-07
-8.28675559e-10
6.68716207e-07
-6.66554878e-10
6.68718054e-07
-5.1911477e-10
6.68708629e-07
-3.85351155e-10
6.6868931e-07
-2.64342744e-10
6.68661431e-07
-1.55216387e-10
6.68626229e-07
-5.70878528e-11
6.68585045e-07
3.07590651e-11
6.68538795e-07
1.0924904e-10
6.68488254e-07
1.79230976e-10
6.68434074e-07
2.41373005e-10
6.68376857e-07
2.96313667e-10
6.68317127e-07
3.44656977e-10
6.68255337e-07
3.86982292e-10
6.68191882e-07
4.23830645e-10
6.68127115e-07
4.55705053e-10
6.6806135e-07
4.83073805e-10
6.67994869e-07
5.06367937e-10
6.67927926e-07
5.25982527e-10
6.67860747e-07
5.42277895e-10
6.67793535e-07
5.55581707e-10
6.67726468e-07
5.66190311e-10
6.67659702e-07
5.74372929e-10
6.67593374e-07
5.80372902e-10
6.67527602e-07
5.84411279e-10
6.67462485e-07
5.86688512e-10
6.67398108e-07
5.87387063e-10
6.67334542e-07
5.86672089e-10
6.67271847e-07
5.84693823e-10
6.6721007e-07
5.81588813e-10
6.67149251e-07
5.7748011e-10
6.6708942e-07
5.72479128e-10
6.67030602e-07
5.66686487e-10
6.66972816e-07
5.601919e-10
6.66916076e-07
5.53075781e-10
6.66860393e-07
5.45409895e-10
6.66805773e-07
5.37257122e-10
6.66752219e-07
5.28672992e-10
6.66699735e-07
5.19705593e-10
6.66648319e-07
5.10396561e-10
6.66597969e-07
5.00780254e-10
6.66548681e-07
4.90885608e-10
6.66500448e-07
4.8073251e-10
6.6645326e-07
4.70346613e-10
6.66407105e-07
4.59696888e-10
6.66361929e-07
4.48959385e-10
6.66317734e-07
4.37463668e-10
6.66273972e-07
4.28064978e-10
4.09444819e-10
6.66673924e-07
-7.20819246e-11
6.66713474e-07
-3.16201998e-10
6.6680565e-07
-6.75887752e-10
6.66970199e-07
-1.15578195e-09
6.67222491e-07
-1.7275542e-09
6.67568232e-07
-2.32198649e-09
6.6799866e-07
-2.83809489e-09
6.68489002e-07
-3.1686766e-09
6.69001842e-07
-3.23428475e-09
6.6949414e-07
-3.00665485e-09
6.69925151e-07
-2.51152538e-09
6.70262991e-07
-1.81607557e-09
6.70489032e-07
-1.01068935e-09
6.70600124e-07
-1.91046758e-10
6.70600892e-07
5.64051845e-10
6.70510701e-07
1.18688714e-09
6.70352859e-07
1.64089417e-09
6.70153103e-07
1.91128909e-09
6.6993682e-07
2.00209936e-09
6.69727585e-07
1.93003848e-09
6.69546025e-07
1.72074165e-09
6.69408554e-07
1.40868783e-09
6.69325561e-07
1.04043739e-09
6.69298861e-07
6.77796683e-10
6.69319217e-07
3.95794886e-10
6.69365187e-07
2.72620179e-10
6.69404527e-07
3.73190909e-10
6.69399332e-07
7.31957909e-10
6.6931224e-07
1.3430136e-09
6.69111956e-07
2.16043763e-09
6.68777427e-07
3.1082893e-09
6.68300169e-07
4.09649656e-09
6.67684394e-07
5.03758496e-09
6.66945137e-07
5.85981505e-09
6.66105144e-07
6.51434458e-09
6.65191415e-07
6.97650672e-09
6.6423207e-07
7.24308342e-09
6.63253858e-07
7.32811845e-09
6.62280205e-07
7.25942768e-09
6.61329513e-07
7.07677936e-09
6.60413447e-07
6.83121831e-09
6.59535235e-07
6.58377469e-09
6.58688407e-07
6.40144926e-09
6.57856644e-07
6.34922631e-09
6.5701535e-07
6.47867714e-09
6.56135157e-07
6.8157778e-09
6.55186955e-07
7.35189594e-09
6.54147441e-07
8.04177117e-09
6.5300386e-07
8.81053516e-09
6.51756638e-07
9.56889345e-09
6.50419144e-07
1.0232613e-08
6.49014585e-07
1.07406068e-08
6.47570943e-07
1.10661071e-08
6.46115448e-07
1.12177254e-08
6.44670164e-07
1.12307917e-08
6.43249751e-07
1.11527506e-08
6.41861631e-07
1.10281241e-08
6.40507957e-07
1.088798e-08
6.39188292e-07
1.07463738e-08
6.37901948e-07
1.06031882e-08
6.36649343e-07
1.04505634e-08
6.35432266e-07
1.0279517e-08
6.34253395e-07
1.00842993e-08
6.33115552e-07
9.86371776e-09
6.32021092e-07
9.62011807e-09
6.30971612e-07
9.35740848e-09
6.29967963e-07
9.07932969e-09
6.29010425e-07
8.78853728e-09
6.28098915e-07
8.48651507e-09
6.2723315e-07
8.17390712e-09
6.2641275e-07
7.8508924e-09
6.2563729e-07
7.51743094e-09
6.24906356e-07
7.17331678e-09
6.24219592e-07
6.81812055e-09
6.23576758e-07
6.45114438e-09
6.2297779e-07
6.07140085e-09
6.22422843e-07
5.67762543e-09
6.21912323e-07
5.26833437e-09
6.21446897e-07
4.84188009e-09
6.21027506e-07
4.39650364e-09
6.20655384e-07
3.93041122e-09
6.2033211e-07
3.44184268e-09
6.20059663e-07
2.9291161e-09
6.198404e-07
2.39066736e-09
6.19677178e-07
1.82509678e-09
6.19574197e-07
1.23139618e-09
6.19534709e-07
6.0883034e-10
6.19558241e-07
-4.23952617e-11
6.19655567e-07
-7.22961848e-10
6.198305e-07
-1.43236448e-09
6.20089559e-07
-2.17004452e-09
6.20438517e-07
-2.93482631e-09
6.20882975e-07
-3.72487554e-09
6.21428324e-07
-4.53737959e-09
6.22079546e-07
-5.36848211e-09
6.22840977e-07
-6.21317547e-09
6.23716079e-07
-7.06520317e-09
6.247072e-07
-7.91704008e-09
6.2581529e-07
-8.75994082e-09
6.2703963e-07
-9.58406983e-09
6.28377588e-07
-1.03786964e-08
6.29824416e-07
-1.11324573e-08
6.31373123e-07
-1.18337299e-08
6.33014432e-07
-1.24710429e-08
6.34736863e-07
-1.3033551e-08
6.36526916e-07
-1.35114889e-08
6.3836939e-07
-1.38966603e-08
6.40247788e-07
-1.41828012e-08
6.4214482e-07
-1.43659117e-08
6.44042939e-07
-1.44444282e-08
6.45924899e-07
-1.44192912e-08
6.47774277e-07
-1.42938369e-08
6.49575941e-07
-1.40736112e-08
6.51316428e-07
-1.37660582e-08
6.52984215e-07
-1.33801155e-08
6.54569888e-07
-1.2925813e-08
6.56066199e-07
-1.2413842e-08
6.57468029e-07
-1.18551264e-08
6.58772276e-07
-1.12604764e-08
6.59977679e-07
-1.06402772e-08
6.61084604e-07
-1.00042266e-08
6.62094803e-07
-9.36117503e-09
6.63011172e-07
-8.71899741e-09
6.63837514e-07
-8.08454169e-09
6.64578306e-07
-7.46360057e-09
6.65238504e-07
-6.86095046e-09
6.65823362e-07
-6.28040336e-09
6.6633828e-07
-5.72487073e-09
6.66788675e-07
-5.19646171e-09
6.67179887e-07
-4.69657507e-09
6.67517094e-07
-4.22598731e-09
6.6780526e-07
-3.78495462e-09
6.68049093e-07
-3.37330001e-09
6.68253019e-07
-2.99048932e-09
6.68421166e-07
-2.63571136e-09
6.68557361e-07
-2.30794242e-09
6.68665128e-07
-2.00599936e-09
6.68747688e-07
-1.72859261e-09
6.68807969e-07
-1.4743675e-09
6.68848618e-07
-1.24194039e-09
6.68872032e-07
-1.0299391e-09
6.68880415e-07
-8.3703145e-10
6.68875813e-07
-6.61937136e-10
6.68860129e-07
-5.03421931e-10
6.68835053e-07
-3.60271961e-10
6.68802029e-07
-2.31318623e-10
6.68762248e-07
-1.15435502e-10
6.68716823e-07
-1.16629148e-11
6.68666123e-07
8.14542136e-11
6.68611009e-07
1.64352065e-10
6.68552227e-07
2.37993924e-10
6.68490448e-07
3.03126797e-10
6.68426235e-07
3.60496955e-10
6.68360064e-07
4.10794053e-10
6.68292358e-07
4.54651602e-10
6.6822349e-07
4.92658872e-10
6.6815379e-07
5.25362748e-10
6.68083552e-07
5.53268793e-10
6.68013035e-07
5.76841532e-10
6.67942465e-07
5.96506978e-10
6.67872044e-07
6.12654076e-10
6.67801944e-07
6.25637266e-10
6.67732312e-07
6.35777541e-10
6.67663274e-07
6.43366562e-10
6.67594936e-07
6.48667567e-10
6.67527385e-07
6.51919037e-10
6.67460695e-07
6.53336392e-10
6.67394925e-07
6.5311486e-10
6.67330126e-07
6.51430323e-10
6.67266337e-07
6.48442099e-10
6.67203592e-07
6.44294483e-10
6.67141916e-07
6.39117093e-10
6.6708133e-07
6.33027071e-10
6.67021849e-07
6.26130106e-10
6.66963484e-07
6.18520384e-10
6.66906242e-07
6.10282403e-10
6.66850126e-07
6.01491691e-10
6.66795136e-07
5.92214525e-10
6.66741267e-07
5.82509571e-10
6.66688514e-07
5.72427751e-10
6.66636867e-07
5.6201332e-10
6.66586315e-07
5.51303008e-10
6.66536844e-07
5.40328169e-10
6.66488439e-07
5.29111024e-10
6.66441079e-07
5.17680738e-10
6.66394746e-07
5.06005847e-10
6.66349406e-07
4.9427085e-10
6.66305117e-07
4.81739818e-10
6.66261802e-07
4.71305202e-10
4.5072265e-10
6.66674088e-07
-7.94529884e-11
6.66714526e-07
-3.56635791e-10
6.66809026e-07
-7.70409867e-10
6.66978326e-07
-1.32510374e-09
6.6723884e-07
-1.98808223e-09
6.67597153e-07
-2.68031614e-09
6.68044727e-07
-3.28569639e-09
6.68556038e-07
-3.68001991e-09
6.69092051e-07
-3.7703251e-09
6.6960776e-07
-3.52238258e-09
6.70060537e-07
-2.96430901e-09
6.70417031e-07
-2.172564e-09
6.70657078e-07
-1.25071955e-09
6.70773134e-07
-3.07092824e-10
6.70780136e-07
5.57119706e-10
6.70693318e-07
1.27380914e-09
6.70536784e-07
1.79756194e-09