/*--------------------------------*- C++ -*----------------------------------*\
| =========                 |                                                 |
| \\      /  F ield         | OpenFOAM: The Open Source CFD Toolbox           |
|  \\    /   O peration     | Version:  v2012                                 |
|   \\  /    A nd           | Website:  www.openfoam.com                      |
|    \\/     M anipulation  |                                                 |
\*---------------------------------------------------------------------------*/
FoamFile
{
    version     2.0;
    format      ascii;
    class       volScalarField;
    location    "2.99";
    object      rAU;
}
// * * * * * * * * * * * * * * * * * * * * * * * * * * * * * * * * * * * * * //

dimensions      [0 0 1 0 0 0 0];


internalField   nonuniform List<scalar> 
28416
(
0.000383353366
0.000383357247
0.000383356447
0.000383355282
0.000383353751
0.00038335194
0.000383350012
0.000383348178
0.000383346645
0.000383345563
0.000383345009
0.000383344992
0.000383345468
0.000383343834
0.000383341555
0.000383339927
0.00038333903
0.000383338852
0.00038333932
0.000383340312
0.000383341684
0.000383343283
0.000383344913
0.000383346353
0.000383347395
0.000383347882
0.000383347748
0.000383347034
0.000383345885
0.000383344535
0.000383343262
0.000383342339
0.000383341996
0.000383342385
0.000383343578
0.000383345573
0.000383348301
0.000383351643
0.000383355441
0.000383359509
0.000383363647
0.000383367649
0.000383371332
0.000383374556
0.000383377254
0.000383379448
0.000383381253
0.000383382867
0.000383384535
0.000383386498
0.000383388947
0.000383391986
0.000383395615
0.000383399743
0.000383404226
0.000383408906
0.000383413648
0.000383418366
0.00038342302
0.000383427605
0.000383432135
0.000383436622
0.00038344107
0.000383445472
0.000383449816
0.000383454087
0.000383458275
0.000383462371
0.000383466372
0.000383470276
0.000383474082
0.000383477791
0.000383481405
0.000383484922
0.000383488343
0.00038349167
0.000383494898
0.000383498019
0.000383501037
0.000383503972
0.000383506823
0.000383509586
0.000383512265
0.000383514871
0.000383517412
0.000383519893
0.000383522312
0.00038352466
0.000383526045
0.000383523878
0.000383521367
0.000383518497
0.000383515269
0.000383511685
0.00038350775
0.000383503468
0.000383498853
0.000383493922
0.000383488694
0.000383483195
0.000383477453
0.000383471503
0.000383465381
0.000383459127
0.000383452787
0.000383446403
0.000383440023
0.000383433689
0.000383427445
0.000383421333
0.000383415392
0.000383409654
0.000383404149
0.000383398904
0.000383393938
0.000383389264
0.000383384895
0.000383380834
0.000383377082
0.000383373637
0.000383370492
0.000383367637
0.000383365062
0.000383362753
0.000383360696
0.000383358875
0.000383357275
0.00038335588
0.000383354673
0.000383353641
0.000383352767
0.000383352037
0.00038335144
0.000383350961
0.000383350588
0.000383350312
0.00038335012
0.000383350004
0.000383349956
0.000383349965
0.000383350025
0.000383350128
0.000383350267
0.000383350434
0.000383350625
0.000383350835
0.000383351059
0.000383351295
0.000383351543
0.00038335179
0.000383351574
0.000383351325
0.000383351133
0.000383350995
0.000383350906
0.000383350861
0.000383350854
0.000383350883
0.000383350942
0.000383351027
0.000383351134
0.000383351263
0.000383351408
0.00038335157
0.000383351745
0.000383351931
0.000383352127
0.000383352333
0.000383352546
0.000383352764
0.000383352988
0.000383353216
0.000383353447
0.000383353681
0.000383353916
0.000383354152
0.00038335439
0.000383354626
0.000383354863
0.000383355098
0.000383355332
0.000383355565
0.000383355796
0.000383356025
0.000383356252
0.000383356476
0.000383356698
0.000383356919
0.000383357126
0.000383361764
0.000383350043
0.000383353848
0.000383352926
0.000383351571
0.000383349775
0.000383347639
0.000383345365
0.000383343216
0.000383341447
0.000383340249
0.000383339709
0.000383339823
0.000383340503
0.000383340554
0.00038333897
0.00038333802
0.000383337688
0.000383337911
0.00038333859
0.000383339607
0.000383340832
0.00038334213
0.000383343351
0.000383344356
0.000383345012
0.000383345229
0.000383344986
0.000383344347
0.000383343469
0.000383342568
0.000383341888
0.000383341652
0.000383342026
0.000383343101
0.000383344894
0.000383347355
0.000383350391
0.000383353872
0.000383357655
0.000383361585
0.000383365506
0.000383369273
0.000383372762
0.000383375893
0.000383378645
0.000383381073
0.000383383306
0.000383385526
0.000383387941
0.000383390734
0.000383394032
0.000383397877
0.000383402221
0.000383406953
0.000383411925
0.000383416996
0.000383422057
0.000383427044
0.000383431934
0.000383436732
0.000383441453
0.000383446107
0.000383450694
0.000383455206
0.000383459627
0.000383463944
0.000383468146
0.000383472224
0.000383476174
0.000383479996
0.000383483686
0.000383487244
0.000383490671
0.000383493966
0.000383497128
0.000383500159
0.000383503056
0.000383505819
0.000383508448
0.000383510945
0.000383513314
0.000383515555
0.000383517664
0.000383519646
0.000383521497
0.000383523208
0.000383524756
0.000383526103
0.00038352518
0.000383522707
0.000383519916
0.000383516772
0.000383513263
0.000383509383
0.000383505131
0.000383500511
0.000383495534
0.000383490217
0.00038348458
0.00038347865
0.000383472459
0.000383466046
0.000383459451
0.000383452722
0.00038344591
0.000383439064
0.000383432239
0.000383425486
0.000383418855
0.000383412394
0.000383406149
0.000383400155
0.000383394447
0.000383389052
0.00038338399
0.000383379275
0.000383374915
0.000383370912
0.000383367263
0.000383363961
0.000383360995
0.00038335835
0.000383356009
0.000383353955
0.000383352168
0.000383350627
0.000383349315
0.000383348209
0.000383347291
0.000383346544
0.000383345949
0.000383345489
0.000383345152
0.000383344921
0.000383344784
0.00038334473
0.000383344748
0.000383344826
0.000383344959
0.000383345136
0.000383345351
0.000383345596
0.000383345868
0.000383346159
0.000383346466
0.000383346785
0.000383347111
0.000383347441
0.000383347774
0.000383347979
0.000383347877
0.000383347818
0.000383347799
0.000383347814
0.000383347861
0.000383347936
0.000383348036
0.000383348158
0.000383348298
0.000383348456
0.000383348627
0.000383348811
0.000383349005
0.000383349209
0.000383349419
0.000383349636
0.000383349856
0.000383350082
0.00038335031
0.00038335054
0.000383350772
0.000383351005
0.000383351237
0.00038335147
0.000383351702
0.000383351932
0.000383352161
0.000383352388
0.000383352613
0.000383352836
0.000383353056
0.000383353274
0.000383353488
0.0003833537
0.000383353909
0.000383354115
0.000383354318
0.000383354519
0.000383354711
0.000383359315
0.000383350002
0.000383353656
0.000383352513
0.00038335087
0.00038334874
0.000383346265
0.000383343702
0.000383341372
0.000383339567
0.000383338487
0.000383338201
0.000383338667
0.000383339755
0.000383340825
0.000383338823
0.00038333747
0.000383336812
0.000383336806
0.000383337357
0.000383338335
0.000383339601
0.000383341005
0.000383342384
0.000383343563
0.000383344369
0.000383344663
0.000383344385
0.00038334358
0.000383342401
0.000383341083
0.000383339905
0.000383339134
0.000383338984
0.00038333959
0.000383340999
0.000383343181
0.000383346046
0.000383349463
0.000383353273
0.000383357305
0.000383361377
0.000383365313
0.000383368953
0.000383372182
0.000383374948
0.000383377288
0.000383379331
0.00038338128
0.000383383378
0.00038338586
0.000383388898
0.000383392569
0.000383396847
0.000383401612
0.000383406699
0.000383411936
0.000383417187
0.000383422366
0.000383427443
0.000383432421
0.000383437318
0.000383442152
0.000383446925
0.000383451629
0.00038345625
0.00038346077
0.000383465177
0.000383469461
0.000383473617
0.000383477643
0.000383481538
0.000383485301
0.000383488935
0.000383492437
0.00038349581
0.000383499054
0.000383502171
0.00038350516
0.000383508025
0.000383510765
0.000383513382
0.000383515876
0.000383518238
0.000383520465
0.000383522557
0.000383524503
0.000383526303
0.000383527971
0.000383526205
0.000383523526
0.000383520489
0.000383517075
0.000383513275
0.000383509087
0.000383504511
0.000383499549
0.000383494212
0.000383488518
0.000383482487
0.000383476149
0.000383469541
0.000383462703
0.000383455684
0.000383448535
0.000383441315
0.000383434081
0.000383426894
0.000383419812
0.000383412893
0.000383406189
0.000383399751
0.000383393617
0.000383387823
0.000383382397
0.000383377357
0.000383372714
0.000383368474
0.000383364633
0.000383361183
0.000383358113
0.000383355403
0.000383353036
0.000383350987
0.000383349235
0.000383347755
0.000383346523
0.000383345515
0.000383344709
0.000383344081
0.000383343614
0.000383343287
0.000383343082
0.000383342984
0.000383342979
0.000383343053
0.000383343195
0.000383343394
0.00038334364
0.000383343927
0.000383344245
0.000383344589
0.000383344952
0.00038334533
0.000383345716
0.000383346107
0.000383346498
0.000383346889
0.000383347276
0.000383347661
0.000383347685
0.000383347579
0.00038334752
0.0003833475
0.000383347517
0.000383347566
0.000383347644
0.000383347747
0.000383347874
0.000383348019
0.000383348181
0.000383348358
0.000383348547
0.000383348746
0.000383348955
0.000383349171
0.000383349393
0.000383349619
0.00038334985
0.000383350083
0.000383350318
0.000383350556
0.000383350793
0.00038335103
0.000383351268
0.000383351505
0.00038335174
0.000383351974
0.000383352206
0.000383352435
0.000383352662
0.000383352887
0.000383353109
0.000383353328
0.000383353545
0.000383353758
0.000383353968
0.000383354176
0.000383354382
0.000383354577
0.000383359183
0.000383349979
0.000383353531
0.000383352217
0.000383350324
0.000383347871
0.000383345025
0.000383342091
0.000383339449
0.000383337448
0.000383336319
0.000383336138
0.000383336841
0.000383338252
0.00038334006
0.000383337959
0.00038333634
0.000383335522
0.000383335457
0.000383336035
0.00038333711
0.00038333852
0.00038334009
0.000383341629
0.000383342931
0.000383343791
0.000383344038
0.000383343582
0.000383342453
0.000383340817
0.000383338947
0.000383337176
0.000383335827
0.000383335165
0.00038333536
0.000383336477
0.000383338489
0.000383341296
0.000383344748
0.000383348664
0.000383352846
0.000383357081
0.000383361162
0.000383364897
0.00038336814
0.00038337082
0.000383372968
0.000383374725
0.000383376331
0.000383378075
0.000383380244
0.000383383056
0.000383386617
0.000383390905
0.000383395788
0.000383401072
0.000383406551
0.000383412059
0.000383417493
0.000383422811
0.000383428019
0.000383433142
0.000383438201
0.000383443204
0.000383448145
0.000383453007
0.000383457771
0.000383462423
0.00038346695
0.00038347135
0.000383475619
0.000383479759
0.000383483768
0.000383487649
0.000383491404
0.000383495033
0.00038349854
0.000383501927
0.000383505196
0.00038350835
0.00038351139
0.000383514318
0.000383517133
0.000383519833
0.000383522418
0.000383524887
0.000383527229
0.000383529425
0.000383531346
0.000383528947
0.000383526054
0.000383522782
0.000383519115
0.000383515038
0.000383510542
0.000383505626
0.000383500291
0.000383494546
0.000383488409
0.000383481903
0.00038347506
0.000383467919
0.000383460528
0.000383452941
0.00038344522
0.00038343743
0.00038342964
0.000383421921
0.000383414342
0.000383406968
0.000383399862
0.000383393079
0.000383386665
0.000383380659
0.000383375088
0.000383369971
0.000383365317
0.000383361127
0.000383357393
0.000383354101
0.000383351232
0.000383348762
0.000383346664
0.000383344909
0.000383343469
0.000383342312
0.000383341409
0.000383340733
0.000383340256
0.000383339953
0.000383339801
0.000383339778
0.000383339865
0.000383340046
0.000383340304
0.000383340625
0.000383341
0.000383341415
0.000383341861
0.000383342333
0.000383342821
0.00038334332
0.000383343825
0.000383344333
0.000383344838
0.000383345341
0.000383345837
0.000383346326
0.000383346806
0.000383347155
0.000383347071
0.000383346996
0.000383346967
0.000383346976
0.000383347019
0.000383347094
0.000383347195
0.00038334732
0.000383347467
0.000383347631
0.000383347812
0.000383348005
0.000383348211
0.000383348425
0.000383348649
0.000383348879
0.000383349114
0.000383349353
0.000383349596
0.00038334984
0.000383350086
0.000383350334
0.000383350581
0.000383350827
0.000383351074
0.000383351318
0.000383351561
0.000383351803
0.000383352042
0.000383352278
0.000383352512
0.000383352743
0.000383352972
0.000383353197
0.000383353419
0.000383353639
0.000383353854
0.000383354068
0.00038335428
0.000383354481
0.000383359101
0.000383349951
0.000383353374
0.00038335185
0.000383349667
0.00038334686
0.000383343634
0.000383340354
0.000383337461
0.00038333535
0.000383334272
0.000383334289
0.000383335303
0.000383337087
0.000383339349
0.00038333747
0.000383335448
0.000383334327
0.000383334063
0.000383334545
0.00038333562
0.00038333711
0.000383338822
0.00038334054
0.000383342019
0.000383343012
0.000383343301
0.000383342762
0.000383341411
0.000383339412
0.000383337061
0.000383334728
0.000383332786
0.000383331553
0.000383331244
0.000383331957
0.000383333682
0.000383336326
0.000383339731
0.000383343702
0.000383348019
0.000383352442
0.000383356726
0.000383360642
0.000383364004
0.00038336671
0.000383368774
0.00038337034
0.000383371671
0.0003833731
0.000383374965
0.000383377536
0.000383380956
0.00038338522
0.000383390189
0.000383395646
0.000383401354
0.000383407115
0.000383412804
0.000383418368
0.000383423813
0.000383429165
0.000383434452
0.000383439686
0.00038344486
0.000383449957
0.000383454955
0.000383459837
0.000383464592
0.000383469214
0.000383473704
0.000383478059
0.000383482283
0.000383486379
0.000383490348
0.000383494195
0.000383497924
0.000383501538
0.000383505042
0.000383508441
0.000383511735
0.000383514929
0.000383518022
0.000383521014
0.000383523901
0.000383526677
0.000383529332
0.000383531854
0.000383533982
0.000383531297
0.00038352822
0.000383524739
0.000383520834
0.000383516491
0.000383511698
0.00038350645
0.000383500747
0.000383494596
0.000383488013
0.000383481023
0.000383473658
0.000383465964
0.000383457994
0.000383449809
0.000383441481
0.000383433086
0.000383424704
0.00038341642
0.000383408314
0.000383400465
0.000383392943
0.000383385813
0.000383379127
0.000383372925
0.00038336724
0.000383362085
0.000383357468
0.000383353383
0.000383349816
0.000383346746
0.000383344145
0.000383341979
0.000383340216
0.000383338816
0.000383337746
0.000383336965
0.00038333644
0.000383336139
0.000383336028
0.00038333608
0.00038333627
0.000383336573
0.000383336968
0.000383337439
0.000383337969
0.000383338543
0.000383339151
0.000383339783
0.000383340428
0.000383341082
0.000383341738
0.00038334239
0.000383343035
0.00038334367
0.00038334429
0.000383344896
0.000383345482
0.000383346049
0.000383346595
0.000383346691
0.000383346585
0.000383346529
0.000383346517
0.000383346543
0.000383346603
0.000383346695
0.000383346812
0.000383346953
0.000383347115
0.000383347293
0.000383347487
0.000383347694
0.000383347912
0.000383348138
0.000383348372
0.000383348612
0.000383348857
0.000383349105
0.000383349357
0.00038334961
0.000383349864
0.000383350119
0.000383350374
0.000383350627
0.00038335088
0.000383351131
0.00038335138
0.000383351628
0.000383351872
0.000383352115
0.000383352353
0.00038335259
0.000383352823
0.000383353053
0.00038335328
0.000383353504
0.000383353725
0.000383353942
0.000383354159
0.000383354363
0.000383358983
0.000383349922
0.000383353219
0.000383351485
0.000383349008
0.000383345835
0.000383342206
0.000383338538
0.000383335337
0.000383333054
0.000383331966
0.000383332135
0.000383333433
0.00038333559
0.000383338271
0.000383336812
0.000383334421
0.000383333029
0.000383332602
0.000383333021
0.000383334119
0.0003833357
0.000383337551
0.000383339428
0.000383341058
0.000383342152
0.000383342454
0.000383341797
0.000383340173
0.000383337753
0.000383334863
0.000383331923
0.000383329365
0.000383327557
0.000383326758
0.000383327092
0.000383328561
0.000383331071
0.000383334453
0.000383338494
0.000383342949
0.000383347549
0.000383352017
0.000383356087
0.000383359538
0.00038336224
0.000383364191
0.000383365543
0.000383366582
0.000383367689
0.000383369254
0.000383371597
0.000383374898
0.000383379166
0.000383384257
0.000383389927
0.000383395906
0.000383401964
0.000383407953
0.000383413808
0.000383419529
0.00038342515
0.000383430701
0.000383436199
0.000383441637
0.000383446997
0.000383452255
0.000383457392
0.000383462396
0.000383467261
0.000383471988
0.000383476578
0.000383481033
0.00038348536
0.000383489563
0.000383493646
0.000383497617
0.000383501481
0.000383505244
0.000383508914
0.000383512493
0.000383515985
0.000383519392
0.000383522714
0.000383525947
0.000383529089
0.00038353213
0.00038353506
0.000383537568
0.000383534751
0.000383531519
0.000383527851
0.000383523727
0.000383519126
0.000383514033
0.00038350844
0.000383502342
0.000383495744
0.000383488661
0.000383481116
0.000383473146
0.0003834648
0.000383456137
0.00038344723
0.00038343816
0.00038342902
0.000383419904
0.000383410914
0.000383402144
0.00038339369
0.000383385635
0.000383378054
0.000383371007
0.00038336454
0.000383358683
0.000383353452
0.000383348847
0.000383344857
0.000383341458
0.000383338619
0.000383336304
0.000383334468
0.000383333068
0.000383332055
0.000383331387
0.000383331017
0.000383330904
0.00038333101
0.000383331298
0.000383331736
0.000383332296
0.000383332952
0.000383333682
0.000383334467
0.00038333529
0.000383336138
0.000383337
0.000383337866
0.000383338727
0.000383339578
0.000383340413
0.000383341228
0.000383342019
0.000383342787
0.000383343527
0.000383344241
0.000383344928
0.000383345587
0.000383346024
0.00038334595
0.000383345887
0.000383345871
0.000383345896
0.000383345958
0.000383346052
0.000383346174
0.000383346321
0.000383346488
0.000383346675
0.000383346878
0.000383347094
0.000383347321
0.000383347558
0.000383347802
0.000383348054
0.00038334831
0.00038334857
0.000383348833
0.000383349098
0.000383349364
0.000383349629
0.000383349895
0.00038335016
0.000383350423
0.000383350686
0.000383350946
0.000383351203
0.000383351458
0.00038335171
0.000383351959
0.000383352205
0.000383352448
0.000383352688
0.000383352923
0.000383353157
0.000383353386
0.000383353612
0.000383353835
0.000383354057
0.000383354266
0.000383358898
0.000383349893
0.000383353056
0.000383351102
0.000383348314
0.000383344757
0.000383340711
0.000383336651
0.000383333151
0.000383330712
0.000383329639
0.000383329983
0.000383331583
0.000383334118
0.000383337187
0.00038333619
0.00038333339
0.000383331692
0.000383331067
0.000383331395
0.000383332499
0.00038333417
0.000383336171
0.000383338229
0.000383340029
0.000383341238
0.000383341551
0.000383340777
0.000383338891
0.000383336066
0.00038333265
0.000383329104
0.000383325912
0.000383323497
0.000383322162
0.000383322066
0.00038332323
0.000383325564
0.000383328893
0.000383332989
0.000383337582
0.000383342374
0.000383347051
0.000383351306
0.000383354879
0.00038335761
0.000383359481
0.000383360647
0.000383361421
0.000383362226
0.000383363506
0.000383365633
0.000383368824
0.000383373106
0.000383378329
0.000383384225
0.000383390492
0.000383396866
0.000383403174
0.000383409338
0.000383415358
0.000383421265
0.000383427098
0.000383432875
0.000383438589
0.00038344422
0.000383449743
0.000383455136
0.000383460386
0.000383465487
0.000383470442
0.000383475252
0.000383479923
0.000383484462
0.000383488876
0.000383493173
0.000383497361
0.00038350145
0.000383505447
0.00038350936
0.000383513197
0.000383516962
0.000383520659
0.000383524289
0.000383527851
0.000383531341
0.000383534753
0.000383538075
0.000383541178
0.000383538355
0.000383534991
0.000383531164
0.000383526847
0.000383522013
0.000383516642
0.000383510718
0.000383504231
0.000383497182
0.000383489582
0.000383481453
0.000383472832
0.000383463774
0.000383454345
0.000383444628
0.000383434721
0.000383424731
0.000383414775
0.000383404971
0.000383395439
0.000383386289
0.000383377625
0.000383369534
0.000383362086
0.000383355331
0.000383349303
0.00038334401
0.000383339449
0.000383335599
0.000383332425
0.000383329883
0.000383327924
0.00038332649
0.000383325525
0.000383324971
0.000383324774
0.000383324879
0.000383325237
0.000383325804
0.000383326539
0.000383327406
0.000383328373
0.000383329413
0.000383330503
0.000383331624
0.000383332759
0.000383333894
0.000383335019
0.000383336126
0.000383337207
0.000383338258
0.000383339275
0.000383340255
0.000383341197
0.000383342101
0.000383342964
0.000383343788
0.000383344572
0.000383345254
0.000383345339
0.000383345263
0.000383345238
0.000383345257
0.000383345317
0.000383345411
0.000383345535
0.000383345687
0.000383345861
0.000383346054
0.000383346265
0.00038334649
0.000383346726
0.000383346973
0.000383347228
0.000383347489
0.000383347756
0.000383348027
0.000383348301
0.000383348576
0.000383348853
0.00038334913
0.000383349406
0.000383349682
0.000383349956
0.000383350228
0.000383350498
0.000383350766
0.000383351031
0.000383351293
0.000383351551
0.000383351807
0.000383352058
0.000383352307
0.000383352552
0.000383352792
0.00038335303
0.000383353265
0.000383353495
0.000383353722
0.000383353948
0.00038335416
0.000383358794
0.000383349862
0.000383352886
0.000383350699
0.000383347587
0.00038334363
0.000383339148
0.000383334675
0.000383330852
0.000383328237
0.000383327157
0.000383327662
0.000383329555
0.000383332469
0.000383335954
0.000383335557
0.000383332342
0.000383330329
0.000383329499
0.000383329732
0.000383330836
0.000383332585
0.00038333472
0.000383336938
0.000383338894
0.000383340212
0.00038334048
0.000383339655
0.000383337489
0.000383334227
0.000383330248
0.000383326062
0.000383322208
0.000383319164
0.000383317279
0.000383316744
0.000383317595
0.000383319747
0.000383323016
0.000383327158
0.00038333188
0.000383336855
0.000383341734
0.000383346171
0.000383349868
0.000383352631
0.000383354427
0.000383355411
0.000383355924
0.00038335643
0.000383357432
0.000383359352
0.000383362448
0.000383366765
0.000383372147
0.000383378303
0.000383384895
0.000383391626
0.000383398297
0.000383404815
0.000383411172
0.000383417406
0.000383423555
0.00038342964
0.000383435657
0.000383441583
0.000383447388
0.000383453051
0.000383458557
0.000383463901
0.000383469086
0.000383474117
0.000383479002
0.000383483751
0.000383488373
0.00038349288
0.000383497284
0.000383501596
0.000383505828
0.000383509992
0.000383514095
0.000383518144
0.000383522147
0.000383526104
0.000383530018
0.000383533885
0.0003835377
0.000383541454
0.000383545137
0.0003835428
0.000383539346
0.000383535395
0.000383530914
0.000383525869
0.000383520232
0.00038351398
0.000383507094
0.000383499567
0.000383491406
0.000383482629
0.000383473275
0.000383463401
0.000383453082
0.000383442416
0.000383431516
0.000383420513
0.000383409547
0.000383398765
0.00038338831
0.000383378322
0.000383368923
0.000383360219
0.000383352292
0.000383345197
0.000383338969
0.000383333612
0.000383329111
0.000383325434
0.000383322531
0.000383320342
0.000383318801
0.000383317834
0.000383317372
0.000383317341
0.000383317678
0.000383318316
0.000383319199
0.000383320276
0.000383321501
0.000383322834
0.000383324242
0.000383325695
0.00038332717
0.000383328648
0.000383330112
0.000383331549
0.000383332952
0.000383334311
0.000383335621
0.00038333688
0.000383338084
0.000383339232
0.000383340324
0.000383341361
0.000383342343
0.000383343273
0.000383344151
0.000383344503
0.000383344431
0.000383344414
0.000383344444
0.000383344516
0.000383344624
0.000383344763
0.000383344929
0.000383345119
0.000383345329
0.000383345556
0.000383345797
0.000383346051
0.000383346314
0.000383346585
0.000383346863
0.000383347145
0.000383347432
0.000383347722
0.000383348012
0.000383348303
0.000383348595
0.000383348886
0.000383349174
0.000383349462
0.000383349748
0.00038335003
0.00038335031
0.000383350587
0.00038335086
0.00038335113
0.000383351396
0.000383351658
0.000383351917
0.000383352172
0.000383352423
0.000383352669
0.000383352913
0.000383353153
0.000383353388
0.00038335362
0.000383353851
0.000383354068
0.000383358711
0.000383349828
0.000383352705
0.000383350274
0.000383346823
0.00038334245
0.000383337515
0.000383332616
0.000383328461
0.000383325665
0.000383324581
0.000383325249
0.000383327441
0.000383330736
0.000383334627
0.000383334914
0.000383331268
0.000383328927
0.000383327882
0.000383328009
0.000383329111
0.000383330943
0.000383333224
0.000383335621
0.000383337744
0.000383339169
0.000383338776
0.000383338257
0.000383336015
0.000383332309
0.000383327758
0.000383322914
0.000383318374
0.000383314671
0.000383312202
0.000383311192
0.000383311699
0.000383313643
0.000383316835
0.000383321014
0.000383325864
0.000383331026
0.000383336112
0.000383340735
0.000383344558
0.000383347356
0.00038334908
0.000383349889
0.000383350148
0.000383350369
0.000383351107
0.000383352839
0.000383355862
0.000383360239
0.00038336581
0.000383372258
0.000383379211
0.000383386336
0.000383393406
0.000383400314
0.000383407045
0.000383413636
0.000383420132
0.000383426553
0.000383432895
0.000383439132
0.000383445234
0.000383451174
0.000383456939
0.000383462523
0.000383467932
0.000383473174
0.000383478259
0.000383483201
0.000383488013
0.000383492711
0.00038349731
0.000383501825
0.000383506272
0.000383510664
0.000383515013
0.00038351933
0.000383523622
0.000383527894
0.00038353215
0.000383536388
0.000383540608
0.000383544799
0.000383548949
0.00038354769
0.000383544186
0.000383540153
0.000383535552
0.000383530338
0.000383524471
0.000383517918
0.000383510647
0.000383502642
0.000383493901
0.000383484435
0.000383474281
0.000383463499
0.000383452174
0.000383440417
0.000383428364
0.000383416173
0.000383404016
0.000383392074
0.000383380527
0.000383369546
0.000383359282
0.000383349865
0.000383341389
0.000383333918
0.000383327485
0.000383322086
0.000383317694
0.000383314258
0.000383311709
0.000383309964
0.000383308938
0.000383308539
0.000383308676
0.000383309263
0.000383310219
0.000383311471
0.00038331295
0.000383314602
0.000383316373
0.00038331822
0.000383320109
0.00038332201
0.000383323898
0.000383325755
0.000383327565
0.000383329317
0.000383331005
0.000383332622
0.000383334165
0.000383335633
0.000383337025
0.000383338342
0.000383339585
0.000383340759
0.000383341863
0.000383342903
0.000383343524
0.000383343535
0.000383343528
0.000383343571
0.000383343657
0.000383343781
0.000383343938
0.000383344123
0.000383344331
0.000383344561
0.000383344807
0.000383345068
0.000383345341
0.000383345623
0.000383345913
0.000383346209
0.00038334651
0.000383346814
0.00038334712
0.000383347427
0.000383347735
0.000383348041
0.000383348347
0.000383348651
0.000383348952
0.000383349252
0.000383349548
0.00038334984
0.00038335013
0.000383350415
0.000383350696
0.000383350974
0.000383351247
0.000383351516
0.00038335178
0.000383352041
0.000383352298
0.00038335255
0.000383352798
0.000383353042
0.000383353282
0.000383353518
0.000383353753
0.000383353973
0.000383358619
0.000383349793
0.000383352515
0.000383349827
0.00038334602
0.000383341213
0.000383335809
0.000383330467
0.000383325968
0.000383322979
0.000383321882
0.000383322709
0.000383325195
0.000383328871
0.000383333173
0.000383334279
0.000383330192
0.000383327512
0.000383326243
0.000383326261
0.000383327357
0.000383329267
0.000383331687
0.000383334249
0.000383336528
0.000383337729
0.000383336342
0.000383336067
0.00038333445
0.000383330274
0.000383325119
0.000383319588
0.000383314331
0.00038330994
0.00038330686
0.00038330535
0.000383305491
0.000383307204
0.000383310299
0.000383314497
0.00038331946
0.000383324795
0.000383330081
0.000383334889
0.000383338843
0.000383341685
0.000383343345
0.000383343986
0.000383344001
0.000383343945
0.000383344429
0.000383345986
0.000383348955
0.000383353419
0.000383359212
0.000383365991
0.000383373349
0.000383380918
0.000383388439
0.000383395786
0.000383402939
0.000383409934
0.000383416816
0.000383423608
0.000383430304
0.000383436876
0.00038344329
0.000383449518
0.000383455545
0.000383461368
0.000383466994
0.000383472434
0.000383477704
0.000383482822
0.000383487805
0.000383492674
0.00038349745
0.000383502153
0.0003835068
0.000383511411
0.000383516
0.00038352058
0.000383525163
0.000383529755
0.000383534362
0.000383538986
0.000383543627
0.000383548278
0.000383552933
0.000383553335
0.000383549837
0.000383545781
0.000383541112
0.000383535778
0.000383529723
0.000383522898
0.000383515259
0.000383506772
0.000383497423
0.000383487213
0.000383476173
0.000383464364
0.00038345188
0.000383438848
0.000383425432
0.000383411824
0.000383398238
0.000383384899
0.000383372035
0.00038335986
0.000383348563
0.000383338302
0.000383329191
0.0003833213
0.000383314657
0.000383309249
0.000383305027
0.000383301916
0.000383299821
0.000383298632
0.000383298237
0.000383298518
0.000383299365
0.000383300671
0.000383302343
0.000383304292
0.000383306444
0.000383308733
0.000383311105
0.000383313513
0.000383315922
0.0003833183
0.000383320625
0.000383322881
0.000383325052
0.000383327131
0.000383329113
0.000383330995
0.000383332774
0.000383334453
0.000383336032
0.000383337516
0.000383338906
0.000383340208
0.000383341424
0.000383342249
0.000383342408
0.000383342429
0.000383342501
0.00038334262
0.000383342776
0.000383342964
0.00038334318
0.00038334342
0.000383343679
0.000383343954
0.000383344244
0.000383344543
0.000383344852
0.000383345168
0.000383345489
0.000383345813
0.00038334614
0.000383346467
0.000383346796
0.000383347123
0.00038334745
0.000383347773
0.000383348095
0.000383348414
0.000383348729
0.000383349041
0.000383349348
0.000383349651
0.000383349951
0.000383350246
0.000383350535
0.000383350821
0.000383351102
0.000383351378
0.000383351649
0.000383351917
0.000383352179
0.000383352436
0.00038335269
0.000383352939
0.000383353184
0.000383353425
0.000383353664
0.000383353887
0.000383358541
0.000383349755
0.000383352313
0.000383349355
0.000383345176
0.000383339917
0.000383334026
0.000383328227
0.000383323371
0.000383320182
0.000383319068
0.000383320051
0.000383322833
0.00038332689
0.000383331602
0.000383333654
0.000383329113
0.000383326084
0.000383324583
0.000383324486
0.000383325572
0.000383327563
0.000383330126
0.000383332862
0.000383335301
0.000383335535
0.000383333599
0.000383333181
0.000383332827
0.000383328158
0.000383322376
0.000383316127
0.000383310121
0.000383305006
0.000383301277
0.000383299233
0.000383298973
0.00038330043
0.000383303406
0.000383307608
0.000383312671
0.000383318175
0.000383323654
0.000383328642
0.000383332719
0.000383335596
0.000383337189
0.000383337663
0.000383337437
0.000383337113
0.00038333736
0.000383338763
0.000383341706
0.00038334629
0.000383352345
0.000383359504
0.000383367319