/*--------------------------------*- C++ -*----------------------------------*\
| =========                 |                                                 |
| \\      /  F ield         | OpenFOAM: The Open Source CFD Toolbox           |
|  \\    /   O peration     | Version:  v2012                                 |
|   \\  /    A nd           | Website:  www.openfoam.com                      |
|    \\/     M anipulation  |                                                 |
\*---------------------------------------------------------------------------*/
FoamFile
{
    version     2.0;
    format      ascii;
    class       volVectorField;
    location    "2.99";
    object      U;
}
// * * * * * * * * * * * * * * * * * * * * * * * * * * * * * * * * * * * * * //

dimensions      [0 1 -1 0 0 0 0];


internalField   nonuniform List<vector> 
28416
(
(0.100000323 -5.38881708e-06 0)
(0.100004796 -1.93748308e-05 0)
(0.100015906 -3.80741229e-05 0)
(0.10003593 -6.23349861e-05 0)
(0.100066555 -9.05723232e-05 0)
(0.100108521 -0.000118763156 0)
(0.100161088 -0.000141398394 0)
(0.100221628 -0.000152982595 0)
(0.100285753 -0.000149804294 0)
(0.100348097 -0.000131066169 0)
(0.100403375 -9.87940144e-05 0)
(0.100447159 -5.68455829e-05 0)
(0.10047612 -9.61913381e-06 0)
(0.100490744 3.93782794e-05 0)
(0.100494345 8.52955199e-05 0)
(0.100488417 0.000122809454 0)
(0.10047403 0.000149247461 0)
(0.100453529 0.000163663079 0)
(0.10042946 0.000166321953 0)
(0.100404146 0.000158524417 0)
(0.100379681 0.000142287826 0)
(0.100357695 0.000120213402 0)
(0.100339138 9.56644954e-05 0)
(0.100324548 7.29647213e-05 0)
(0.100313875 5.67526046e-05 0)
(0.100305673 5.12303443e-05 0)
(0.100296824 5.94375129e-05 0)
(0.100282995 8.26806044e-05 0)
(0.100259628 0.000120160195 0)
(0.100222869 0.000168955017 0)
(0.100170114 0.000224553568 0)
(0.100100251 0.000281751115 0)
(0.100013663 0.00033555079 0)
(0.0999119825 0.000381836064 0)
(0.0997976861 0.000417747678 0)
(0.0996736774 0.000441801055 0)
(0.0995429447 0.000453830295 0)
(0.0994083238 0.000454849585 0)
(0.0992723391 0.000446895218 0)
(0.0991370708 0.00043286997 0)
(0.0990039955 0.000416369572 0)
(0.0988737872 0.00040144091 0)
(0.0987461225 0.00039221832 0)
(0.0986195828 0.000392417932 0)
(0.0984917564 0.000404735279 0)
(0.0983595927 0.000430266361 0)
(0.0982199702 0.000468124711 0)
(0.0980703429 0.000515424594 0)
(0.0979092878 0.000567723768 0)
(0.0977367971 0.000619878036 0)
(0.0975542423 0.000667103224 0)
(0.0973640354 0.000705939938 0)
(0.0971691004 0.000734828768 0)
(0.096972312 0.000754134697 0)
(0.0967760522 0.000765657578 0)
(0.0965819822 0.00077184372 0)
(0.0963910473 0.000774994672 0)
(0.09620366 0.000776725 0)
(0.0960199601 0.000777784326 0)
(0.0958400479 0.000778202122 0)
(0.0956641264 0.000777607139 0)
(0.0954925361 0.000775551759 0)
(0.0953257126 0.000771723587 0)
(0.0951641121 0.000766010511 0)
(0.0950081482 0.000758455382 0)
(0.0948581579 0.000749166465 0)
(0.0947143978 0.000738240326 0)
(0.094577059 0.000725723717 0)
(0.0944462862 0.000711612029 0)
(0.094322193 0.00069586697 0)
(0.0942048714 0.000678436123 0)
(0.0940943973 0.0006592651 0)
(0.0939908352 0.00063830151 0)
(0.0938942442 0.000615494503 0)
(0.0938046872 0.0005907938 0)
(0.0937222444 0.000564150243 0)
(0.0936470313 0.000535515291 0)
(0.0935792579 0.000504838558 0)
(0.0935192466 0.000472024785 0)
(0.0934671857 0.000436906216 0)
(0.0934231817 0.0003993703 0)
(0.0933874497 0.000359219232 0)
(0.0933601384 0.000316209232 0)
(0.0933412866 0.000270121887 0)
(0.0933308646 0.000220776762 0)
(0.0933286866 0.000168168832 0)
(0.0933345549 0.000112619373 0)
(0.0933478232 5.47075433e-05 0)
(0.0933676721 -3.48224035e-06 0)
(0.0933974843 -6.01328652e-05 0)
(0.0934412314 -0.000117026225 0)
(0.0934984109 -0.000175257076 0)
(0.0935681343 -0.000234721749 0)
(0.0936506952 -0.000295236698 0)
(0.0937464318 -0.000356663055 0)
(0.0938553095 -0.000418696428 0)
(0.0939772085 -0.000480887551 0)
(0.0941120005 -0.000542720643 0)
(0.09425945 -0.000603632759 0)
(0.0944191743 -0.000663015362 0)
(0.0945906472 -0.000720224441 0)
(0.0947731952 -0.000774594698 0)
(0.094965992 -0.000825456106 0)
(0.0951680631 -0.000872154626 0)
(0.0953782961 -0.000914075915 0)
(0.0955954551 -0.000950669126 0)
(0.0958181981 -0.000981468334 0)
(0.0960450995 -0.00100610984 0)
(0.0962746756 -0.00102434437 0)
(0.0965054139 -0.00103604389 0)
(0.096735804 -0.00104120321 0)
(0.0969643691 -0.00103993704 0)
(0.0971896958 -0.00103247275 0)
(0.097410462 -0.00101913966 0)
(0.09762546 -0.00100035537 0)
(0.0978336142 -0.000976609784 0)
(0.0980339949 -0.000948447751 0)
(0.0982258246 -0.000916451085 0)
(0.0984084812 -0.000881220963 0)
(0.098581495 -0.000843361367 0)
(0.098744543 -0.000803464276 0)
(0.0988974393 -0.00076209701 0)
(0.0990401237 -0.000719791951 0)
(0.099172648 -0.000677038694 0)
(0.0992951622 -0.000634278556 0)
(0.0994079002 -0.000591901245 0)
(0.0995111652 -0.000550243466 0)
(0.0996053166 -0.000509589262 0)
(0.0996907572 -0.000470171726 0)
(0.0997679215 -0.000432175649 0)
(0.0998372657 -0.00039574087 0)
(0.0998992593 -0.000360966237 0)
(0.0999543775 -0.000327914098 0)
(0.100003095 -0.000296615054 0)
(0.10004588 -0.000267072464 0)
(0.100083191 -0.000239266649 0)
(0.100115475 -0.000213159271 0)
(0.100143164 -0.000188697935 0)
(0.100166673 -0.000165820431 0)
(0.100186402 -0.000144458564 0)
(0.10020273 -0.00012454241 0)
(0.100216019 -0.000106005511 0)
(0.100226612 -8.87906282e-05 0)
(0.100234823 -7.28547147e-05 0)
(0.10024093 -5.81700054e-05 0)
(0.100245163 -4.47165961e-05 0)
(0.100247702 -3.24656898e-05 0)
(0.100248686 -2.13640982e-05 0)
(0.100248217 -1.13290134e-05 0)
(0.100246392 -2.21259519e-06 0)
(0.10024353 6.13259257e-06 0)
(0.100239914 1.36245441e-05 0)
(0.100235533 2.02678006e-05 0)
(0.1002304 2.61417497e-05 0)
(0.100224605 3.13163453e-05 0)
(0.100218224 3.58564304e-05 0)
(0.100211325 3.98287304e-05 0)
(0.100203982 4.32953281e-05 0)
(0.100196269 4.63106297e-05 0)
(0.100188252 4.8920205e-05 0)
(0.100179993 5.11626143e-05 0)
(0.100171544 5.30712063e-05 0)
(0.100162952 5.46751572e-05 0)
(0.100154256 5.60002973e-05 0)
(0.100145492 5.70699021e-05 0)
(0.10013669 5.79053497e-05 0)
(0.100127875 5.85265808e-05 0)
(0.100119069 5.89523559e-05 0)
(0.100110291 5.92003595e-05 0)
(0.100101559 5.92872155e-05 0)
(0.100092887 5.92284694e-05 0)
(0.100084287 5.90385584e-05 0)
(0.100075771 5.87307832e-05 0)
(0.100067349 5.83172844e-05 0)
(0.10005903 5.78090311e-05 0)
(0.100050822 5.72158257e-05 0)
(0.100042732 5.65463349e-05 0)
(0.100034765 5.58081602e-05 0)
(0.100026927 5.50079417e-05 0)
(0.100019222 5.41514852e-05 0)
(0.100011654 5.32438518e-05 0)
(0.100004227 5.22893698e-05 0)
(0.0999969456 5.12917241e-05 0)
(0.0999898092 5.0253709e-05 0)
(0.099982834 4.9178443e-05 0)
(0.0999759829 4.80632624e-05 0)
(0.0999694107 4.69241664e-05 0)
(0.0999626342 4.56842852e-05 0)
(0.0999574588 4.46390694e-05 0)
(0.0999482826 4.24397732e-05 0)
(0.0999999886 -8.89018891e-06 0)
(0.100002225 -3.37816972e-05 0)
(0.100010171 -6.76928566e-05 0)
(0.100027369 -0.000111662799 0)
(0.100056468 -0.000162987933 0)
(0.100098906 -0.000214834369 0)
(0.100154449 -0.000257708748 0)
(0.100220578 -0.000282037309 0)
(0.100292461 -0.00028119179 0)
(0.100363811 -0.000253428075 0)
(0.100428214 -0.000201876855 0)
(0.100480353 -0.000133108294 0)
(0.100517165 -5.51970316e-05 0)
(0.100537407 2.40112369e-05 0)
(0.100540696 9.62736783e-05 0)
(0.100529198 0.000155592231 0)
(0.100506964 0.000198285774 0)
(0.100477684 0.000222867841 0)
(0.100444828 0.000229771483 0)
(0.100411618 0.000220843713 0)
(0.100380883 0.000198900592 0)
(0.100354978 0.000167634507 0)
(0.1003357 0.000131944378 0)
(0.100323888 9.81912505e-05 0)
(0.100318881 7.35995368e-05 0)
(0.100318368 6.524648e-05 0)
(0.100318566 7.86598111e-05 0)
(0.100314597 0.000116419455 0)
(0.10030109 0.000177350448 0)
(0.10027306 0.000256644292 0)
(0.100226793 0.000346880308 0)
(0.100160413 0.000439572742 0)
(0.10007401 0.000526711631 0)
(0.0999694099 0.000601892492 0)
(0.0998496905 0.000660878172 0)
(0.099718626 0.000701653195 0)
(0.0995801862 0.000724162959 0)
(0.0994381625 0.000729960064 0)
(0.0992959128 0.000721920504 0)
(0.0991561708 0.000704081699 0)
(0.099020855 0.000681535424 0)
(0.0988908522 0.000660223542 0)
(0.0987658093 0.000646473127 0)
(0.0986440198 0.000646191867 0)
(0.0985225102 0.000663806077 0)
(0.0983973978 0.000701198303 0)
(0.098264514 0.000757003892 0)
(0.0981201924 0.00082658834 0)
(0.0979620342 0.000902839425 0)
(0.0977894364 0.000977632434 0)
(0.0976037153 0.00104357472 0)
(0.09740778 0.00109551603 0)
(0.0972054531 0.00113137969 0)
(0.0970006511 0.00115210507 0)
(0.0967966704 0.00116080143 0)
(0.0965957662 0.0011614722 0)
(0.0963990972 0.00115777453 0)
(0.0962069717 0.00115219788 0)
(0.0960192465 0.00114582833 0)
(0.0958357087 0.00113862014 0)
(0.095656322 0.00112993139 0)
(0.095481302 0.00111905023 0)
(0.0953110573 0.0011055269 0)
(0.0951460706 0.001089263 0)
(0.09498679 0.00107042305 0)
(0.0948335678 0.00104927876 0)
(0.09468665 0.00102607849 0)
(0.0945461978 0.00100098379 0)
(0.0944123188 0.000974066809 0)
(0.0942850911 0.000945338986 0)
(0.0941645769 0.000914781958 0)
(0.0940508293 0.000882365658 0)
(0.0939438958 0.000848052652 0)
(0.0938438236 0.00081179518 0)
(0.0937506684 0.000773531298 0)
(0.0936645054 0.000733183097 0)
(0.0935854402 0.000690653543 0)
(0.0935136185 0.000645820194 0)
(0.0934492152 0.000598486207 0)
(0.0933923841 0.000548356338 0)
(0.093343181 0.000495185367 0)
(0.0933016541 0.000438699135 0)
(0.0932679142 0.000378607888 0)
(0.0932420617 0.000314758532 0)
(0.0932243038 0.000247165275 0)
(0.0932150246 0.00017602282 0)
(0.0932146799 0.000101696529 0)
(0.0932246706 2.45646167e-05 0)
(0.0932457468 -5.53206697e-05 0)
(0.0932769704 -0.000136088237 0)
(0.0933190455 -0.000218128119 0)
(0.0933736621 -0.000302141273 0)
(0.0934413479 -0.000387927425 0)
(0.0935223402 -0.000475089736 0)
(0.0936170172 -0.000563299924 0)
(0.0937256271 -0.00065210122 0)
(0.0938482504 -0.000740870109 0)
(0.093984868 -0.00082887854 0)
(0.0941353366 -0.000915314521 0)
(0.0942993494 -0.000999288283 0)
(0.0944764244 -0.00107985418 0)
(0.0946658975 -0.00115603931 0)
(0.094866916 -0.00122687242 0)
(0.0950784398 -0.00129141444 0)
(0.0952992499 -0.00134879066 0)
(0.095527964 -0.00139822221 0)
(0.0957630585 -0.00143905511 0)
(0.0960028971 -0.00147078505 0)
(0.0962457649 -0.00149307651 0)
(0.0964899076 -0.00150577478 0)
(0.096733572 -0.00150891027 0)
(0.0969750472 -0.00150269485 0)
(0.0972127038 -0.00148751072 0)
(0.097445028 -0.00146389272 0)
(0.0976706513 -0.00143250546 0)
(0.0978883713 -0.00139411703 0)
(0.0980971672 -0.00134957067 0)
(0.0982962068 -0.00129975637 0)
(0.0984848469 -0.00124558364 0)
(0.0986626281 -0.00118795649 0)
(0.0988292651 -0.00112775171 0)
(0.0989846322 -0.00106580074 0)
(0.0991287471 -0.00100287552 0)
(0.0992617532 -0.000939678105 0)
(0.0993839007 -0.000876834066 0)
(0.0994955278 -0.000814889096 0)
(0.0995970438 -0.000754308447 0)
(0.0996889119 -0.000695478719 0)
(0.0997716348 -0.000638711486 0)
(0.0998457413 -0.000584248247 0)
(0.0999117751 -0.000532266406 0)
(0.0999702845 -0.000482885859 0)
(0.100021815 -0.000436175825 0)
(0.100066902 -0.000392161764 0)
(0.100106067 -0.000350832168 0)
(0.100139814 -0.000312145066 0)
(0.100168623 -0.000276034327 0)
(0.100192952 -0.000242415842 0)
(0.100213235 -0.000211193469 0)
(0.100229878 -0.000182264404 0)
(0.100243259 -0.000155523879 0)
(0.100253728 -0.000130869025 0)
(0.100261601 -0.0001082005 0)
(0.100267159 -8.74207481e-05 0)
(0.100270657 -6.84310037e-05 0)
(0.100272328 -5.11299346e-05 0)
(0.100272387 -3.54125366e-05 0)
(0.100271033 -2.11686999e-05 0)
(0.100268472 -8.28645623e-06 0)
(0.100264871 3.34703829e-06 0)
(0.100260291 1.3891679e-05 0)
(0.100254855 2.33565897e-05 0)
(0.100248742 3.17629834e-05 0)
(0.100242037 3.91935887e-05 0)
(0.100234815 4.57298355e-05 0)
(0.100227149 5.14477613e-05 0)
(0.100219105 5.64256205e-05 0)
(0.100210743 6.07378006e-05 0)
(0.100202118 6.4451424e-05 0)
(0.10019328 6.76257637e-05 0)
(0.100184278 7.0313299e-05 0)
(0.100175153 7.25608246e-05 0)
(0.100165945 7.44102511e-05 0)
(0.100156689 7.58992433e-05 0)
(0.100147413 7.7061795e-05 0)
(0.100138143 7.79287328e-05 0)
(0.100128901 7.85281325e-05 0)
(0.100119708 7.88856458e-05 0)
(0.100110578 7.90247549e-05 0)
(0.100101527 7.89669724e-05 0)
(0.100092567 7.8732003e-05 0)
(0.100083707 7.83378715e-05 0)
(0.100074958 7.78010254e-05 0)
(0.100066326 7.7136423e-05 0)
(0.100057819 7.63576133e-05 0)
(0.100049441 7.54768107e-05 0)
(0.100041199 7.45049666e-05 0)
(0.100033095 7.34518477e-05 0)
(0.100025134 7.23261126e-05 0)
(0.100017317 7.11353783e-05 0)
(0.100009649 6.98862317e-05 0)
(0.10000213 6.85841471e-05 0)
(0.0999947641 6.72335399e-05 0)
(0.0999875484 6.58372847e-05 0)
(0.0999804979 6.43984926e-05 0)
(0.0999735689 6.29118204e-05 0)
(0.0999669187 6.13980813e-05 0)
(0.0999600178 5.97555223e-05 0)
(0.0999547501 5.83776416e-05 0)
(0.0999450944 5.55732722e-05 0)
(0.100000177 -8.90992163e-06 0)
(0.100003505 -3.60330533e-05 0)
(0.100012857 -7.43026184e-05 0)
(0.100031339 -0.000124530504 0)
(0.100061364 -0.000183793608 0)
(0.100104184 -0.000244586786 0)
(0.100159462 -0.00029609691 0)
(0.100224755 -0.000327111764 0)
(0.100295499 -0.000329620092 0)
(0.100365775 -0.000301159829 0)
(0.100429506 -0.000244931917 0)
(0.100481548 -0.000168308446 0)
(0.100518262 -8.08641052e-05 0)
(0.100538227 7.24348556e-06 0)
(0.10054333 8.7396917e-05 0)
(0.100535871 0.000153330117 0)
(0.10051762 0.000201062854 0)
(0.100491754 0.000229011572 0)
(0.100461774 0.000237640123 0)
(0.10043088 0.000228875075 0)
(0.100401914 0.000205674579 0)
(0.100377246 0.000171965726 0)
(0.100358584 0.000132953496 0)
(0.100346722 9.53235426e-05 0)
(0.100341253 6.70427848e-05 0)
(0.10034025 5.6309721e-05 0)
(0.100340089 6.98283042e-05 0)
(0.100335836 0.000111044021 0)
(0.100322161 0.000179075503 0)
(0.100294303 0.000268771918 0)
(0.100248753 0.000371826018 0)
(0.100183673 0.000478504987 0)
(0.100099023 0.000579434815 0)
(0.0999963708 0.000666972556 0)
(0.0998785031 0.000735946094 0)
(0.0997489394 0.000783792386 0)
(0.099611477 0.000810291039 0)
(0.0994698246 0.000817146123 0)
(0.0993273311 0.000807623378 0)
(0.0991867712 0.000786330911 0)
(0.0990501365 0.000759086413 0)
(0.0989184082 0.000732701632 0)
(0.0987913401 0.000714488392 0)
(0.0986673392 0.000711376009 0)
(0.0985435497 0.000728708231 0)
(0.0984162084 0.000768990797 0)
(0.0982812592 0.000830994124 0)
(0.0981351147 0.000909602053 0)
(0.0979753856 0.000996613204 0)
(0.0978013858 0.0010823941 0)
(0.0976142681 0.00115796441 0)
(0.0974167482 0.00121690069 0)
(0.0972124903 0.00125647495 0)
(0.0970053386 0.00127770456 0)
(0.096798618 0.00128438074 0)
(0.0965946942 0.00128149738 0)
(0.0963948765 0.00127367118 0)
(0.0961996207 0.00126406404 0)
(0.0960088957 0.00125404818 0)
(0.0958225525 0.00124353365 0)
(0.0956405758 0.00123165251 0)
(0.0954631728 0.00121744447 0)
(0.0952907312 0.00120029601 0)
(0.0951237119 0.00118006288 0)
(0.0949625461 0.00115695615 0)
(0.0948075731 0.00113133623 0)
(0.0946590272 0.00110353813 0)
(0.094517056 0.00107378503 0)
(0.09438175 0.00104218354 0)
(0.0942531669 0.00100876133 0)
(0.094131347 0.00097350809 0)
(0.09401632 0.000936399262 0)
(0.0939081107 0.000897400848 0)
(0.0938067436 0.000856463856 0)
(0.093712251 0.000813517234 0)
(0.0936246814 0.00076846368 0)
(0.0935441074 0.000721177769 0)
(0.0934706306 0.000671504695 0)
(0.0934043796 0.000619257024 0)
(0.0933454922 0.000564223497 0)
(0.0932941057 0.000506205061 0)
(0.0932503913 0.000445087664 0)
(0.093214644 0.00038080745 0)
(0.0931872589 0.000313370614 0)
(0.0931686114 0.000242860149 0)
(0.093158928 0.000169276466 0)
(0.0931582325 9.25499344e-05 0)
(0.0931654613 1.27341148e-05 0)
(0.0931814068 -6.99430328e-05 0)
(0.0932088918 -0.000155698646 0)
(0.0932488924 -0.000243905799 0)
(0.0933015735 -0.000334426638 0)
(0.0933673406 -0.000427191169 0)
(0.0934466934 -0.000521870786 0)
(0.093540099 -0.00061802187 0)
(0.0936479063 -0.000715100228 0)
(0.0937703327 -0.000812415498 0)
(0.0939074773 -0.000909146489 0)
(0.0940592959 -0.00100436663 0)
(0.094225566 -0.00109705819 0)
(0.0944058666 -0.0011861318 0)
(0.0945995661 -0.00127045487 0)
(0.094805811 -0.00134888523 0)
(0.0950235237 -0.00142030908 0)
(0.0952514096 -0.00148368199 0)
(0.0954879732 -0.00153807025 0)
(0.0957315447 -0.00158268918 0)
(0.0959803151 -0.00161693575 0)
(0.0962323785 -0.00164041323 0)
(0.0964857804 -0.00165294616 0)
(0.0967385683 -0.00165458497 0)
(0.0969888411 -0.00164560024 0)
(0.097234797 -0.00162646743 0)
(0.0974747736 -0.00159784354 0)
(0.0977072823 -0.00156053744 0)
(0.0979310321 -0.00151547617 0)
(0.0981449457 -0.00146366929 0)
(0.0983481654 -0.00140617345 0)
(0.0985400514 -0.00134405895 0)
(0.0987201732 -0.0012783797 0)
(0.0988882948 -0.00121014767 0)
(0.0990443565 -0.00114031223 0)
(0.0991884537 -0.00106974459 0)
(0.0993208145 -0.000999227182 0)
(0.0994417769 -0.000929447485 0)
(0.0995517677 -0.000860995909 0)
(0.0996512811 -0.000794366854 0)
(0.0997408609 -0.00072996249 0)
(0.0998210834 -0.000668098538 0)
(0.0998925434 -0.000609011373 0)
(0.0999558419 -0.00055286601 0)
(0.100011577 -0.00049976452 0)
(0.100060334 -0.000449754523 0)
(0.100102685 -0.000402837616 0)
(0.100139175 -0.000358977351 0)
(0.100170328 -0.000318106574 0)
(0.100196637 -0.00028013414 0)
(0.100218571 -0.000244950813 0)
(0.100236566 -0.00021243422 0)
(0.100251029 -0.000182452912 0)
(0.100262343 -0.000154869298 0)
(0.100270861 -0.000129542177 0)
(0.100276918 -0.00010633092 0)
(0.100280828 -8.510152e-05 0)
(0.100282874 -6.57312532e-05 0)
(0.100283293 -4.81088543e-05 0)
(0.100282275 -3.21309573e-05 0)
(0.10027997 -1.76968401e-05 0)
(0.100276483 -4.70887399e-06 0)
(0.10027196 6.92308889e-06 0)
(0.100266597 1.73065155e-05 0)
(0.100260516 2.65868812e-05 0)
(0.100253789 3.48429944e-05 0)
(0.100246498 4.21498262e-05 0)
(0.100238726 4.8587713e-05 0)
(0.100230547 5.42307087e-05 0)
(0.100222027 5.91488719e-05 0)
(0.100213225 6.34084496e-05 0)
(0.100204199 6.70706821e-05 0)
(0.100194998 7.01924914e-05 0)
(0.10018567 7.28259957e-05 0)
(0.100176254 7.5018238e-05 0)
(0.100166787 7.6811581e-05 0)
(0.100157299 7.82442467e-05 0)
(0.100147818 7.93508205e-05 0)
(0.100138366 8.01627188e-05 0)
(0.100128963 8.07085933e-05 0)
(0.100119627 8.10146499e-05 0)
(0.10011037 8.11048902e-05 0)
(0.100101207 8.10012918e-05 0)
(0.100092146 8.07239451e-05 0)
(0.100083198 8.02911624e-05 0)
(0.100074371 7.97195702e-05 0)
(0.10006567 7.90241919e-05 0)
(0.100057102 7.82185293e-05 0)
(0.100048671 7.73146431e-05 0)
(0.100040382 7.63232352e-05 0)
(0.100032238 7.52537331e-05 0)
(0.100024241 7.41143737e-05 0)
(0.100016394 7.2912276e-05 0)
(0.100008699 7.16535045e-05 0)
(0.100001155 7.03430784e-05 0)
(0.0999937657 6.89850948e-05 0)
(0.0999865271 6.75822154e-05 0)
(0.0999794524 6.61376328e-05 0)
(0.0999724981 6.46462567e-05 0)
(0.0999658182 6.31304096e-05 0)
(0.0999589039 6.14912838e-05 0)
(0.0999536135 6.01217461e-05 0)
(0.0999441643 5.73685154e-05 0)
(0.100000015 -1.10755332e-05 0)
(0.100002487 -4.54519722e-05 0)
(0.100010796 -9.47184695e-05 0)
(0.100028547 -0.00015983119 0)
(0.100058619 -0.000236903052 0)
(0.100102661 -0.00031628003 0)
(0.100160565 -0.000384059318 0)
(0.100229862 -0.000425714812 0)
(0.100305668 -0.000430739015 0)
(0.100381501 -0.00039575197 0)
(0.100450628 -0.000324725869 0)
(0.100507333 -0.000227089276 0)
(0.100547848 -0.000115110487 0)
(0.10057076 -1.27584059e-06 0)
(0.100576206 0.000103432569 0)
(0.100566261 0.000189526494 0)
(0.100544653 0.00025173888 0)
(0.100515179 0.00028826961 0)
(0.100481649 0.0002998007 0)
(0.100447728 0.000288818696 0)
(0.100416707 0.000259072337 0)
(0.100391324 0.000215515343 0)
(0.100373545 0.000164739948 0)
(0.100364223 0.000115397925 0)
(0.100362722 7.78812516e-05 0)
(0.100366715 6.28355626e-05 0)
(0.100372269 7.88714925e-05 0)
(0.100374192 0.000130352512 0)
(0.100366681 0.000216119631 0)
(0.100344274 0.000329578902 0)
(0.100302813 0.000460119077 0)
(0.100240059 0.00059534332 0)
(0.100155867 0.000723365035 0)
(0.100051967 0.000834556831 0)
(0.0999314907 0.000922465747 0)
(0.0997984121 0.000983938708 0)
(0.0996570199 0.00101872902 0)
(0.0995115025 0.00102892856 0)
(0.0993656351 0.00101850347 0)
(0.099222527 0.00099304864 0)
(0.0990843815 0.00095967915 0)
(0.0989522492 0.000926820829 0)
(0.0988258102 0.000903624663 0)
(0.0987032637 0.000898850267 0)
(0.0985814238 0.000919311228 0)
(0.0984560951 0.000968249628 0)
(0.098322727 0.00104417807 0)
(0.0981772482 0.00114069411 0)
(0.0980168903 0.00124751467 0)
(0.0978407762 0.00135257736 0)
(0.0976500936 0.00144466183 0)
(0.0974477933 0.0015157621 0)
(0.0972379038 0.0015624943 0)
(0.0970246716 0.00158615064 0)
(0.0968117826 0.00159148859 0)
(0.0966018706 0.00158477655 0)
(0.096396402 0.00157182503 0)
(0.0961958904 0.00155663733 0)
(0.0960002937 0.00154098183 0)
(0.095809418 0.00152479153 0)
(0.0956231974 0.00150701407 0)
(0.0954417996 0.00148647028 0)
(0.0952655866 0.00146240931 0)
(0.0950950034 0.0014346687 0)
(0.0949304668 0.00140353636 0)
(0.094772297 0.00136949333 0)
(0.0946207016 0.00133299265 0)
(0.0944757946 0.00129434715 0)
(0.094337627 0.00125371996 0)
(0.0942062147 0.00121116937 0)
(0.094081555 0.00116669926 0)
(0.0939636358 0.00112028883 0)
(0.0938524415 0.00107189906 0)
(0.0937479587 0.00102146632 0)
(0.0936501848 0.000968894389 0)
(0.0935591357 0.000914050938 0)
(0.0934748543 0.000856768646 0)
(0.0933974154 0.000796849221 0)
(0.0933269263 0.000734068117 0)
(0.0932635238 0.000668182923 0)
(0.0932073715 0.000598952959 0)
(0.093158669 0.00052615617 0)
(0.093117661 0.000449583294 0)
(0.0930846121 0.000368983125 0)
(0.093059718 0.000284083567 0)
(0.0930431788 0.000194634233 0)
(0.0930355064 0.000100609618 0)
(0.0930384862 2.28107381e-06 0)
(0.0930525932 -9.92807023e-05 0)
(0.0930773659 -0.000203900945 0)
(0.0931139391 -0.000311906594 0)
(0.0931633691 -0.000423217625 0)
(0.0932263897 -0.000537513196 0)
(0.0933036418 -0.000654337055 0)
(0.0933957254 -0.00077311474 0)
(0.0935031533 -0.000893133401 0)
(0.0936263149 -0.00101351761 0)
(0.0937654599 -0.00113323476 0)
(0.0939206703 -0.00125111258 0)
(0.0940918256 -0.00136585771 0)
(0.0942785726 -0.00147608272 0)
(0.0944803034 -0.00158034359 0)
(0.0946961391 -0.00167718391 0)
(0.0949249238 -0.00176518407 0)
(0.095165231 -0.00184301351 0)
(0.0954153819 -0.00190948347 0)
(0.0956734771 -0.00196359674 0)
(0.0959374407 -0.00200459071 0)
(0.0962050738 -0.00203197069 0)
(0.0964741151 -0.00204553069 0)
(0.0967423054 -0.00204536013 0)
(0.0970074517 -0.00203183608 0)
(0.0972674854 -0.00200560219 0)
(0.0975205144 -0.00196753603 0)
(0.0977648634 -0.00191870803 0)
(0.0979991026 -0.00186033516 0)
(0.0982220645 -0.0017937325 0)
(0.0984328484 -0.00172026595 0)
(0.0986308148 -0.00164130835 0)
(0.0988155712 -0.00155820082 0)
(0.0989869513 -0.00147222064 0)
(0.0991449898 -0.00138455599 0)
(0.0992898943 -0.00129628774 0)
(0.0994220168 -0.00120837764 0)
(0.0995418255 -0.00112166248 0)
(0.0996498783 -0.00103685323 0)
(0.0997467979 -0.000954538061 0)
(0.0998332504 -0.000875188655 0)
(0.0999099268 -0.000799168608 0)
(0.0999775272 -0.000726743261 0)
(0.100036748 -0.000658090398 0)
(0.10008827 -0.00059331128 0)
(0.100132755 -0.000532441559 0)
(0.100170833 -0.000475461751 0)
(0.100203104 -0.000422306942 0)
(0.100230135 -0.000372875732 0)
(0.100252454 -0.000327038599 0)
(0.100270556 -0.00028464556 0)
(0.100284898 -0.000245532974 0)
(0.100295906 -0.000209529916 0)
(0.10030397 -0.000176464493 0)
(0.100309441 -0.000146169204 0)
(0.100312628 -0.00011848364 0)
(0.100313793 -9.32544651e-05 0)
(0.100313164 -7.03339147e-05 0)
(0.10031095 -4.95772956e-05 0)
(0.100307352 -3.08400088e-05 0)
(0.100302564 -1.39729909e-05 0)
(0.100296779 1.19172419e-06 0)
(0.10029018 1.4806722e-05 0)
(0.100282893 2.69774184e-05 0)
(0.10027501 3.77973295e-05 0)
(0.100266627 4.73724723e-05 0)
(0.100257832 5.58083476e-05 0)
(0.100248697 6.3204484e-05 0)
(0.100239285 6.9653642e-05 0)
(0.100229651 7.52429409e-05 0)
(0.100219845 8.00537077e-05 0)
(0.100209913 8.41607133e-05 0)
(0.100199893 8.76323214e-05 0)
(0.100189822 9.05307651e-05 0)
(0.100179733 9.29124482e-05 0)
(0.100169652 9.48284014e-05 0)
(0.100159606 9.63247759e-05 0)
(0.100149617 9.74433094e-05 0)
(0.100139703 9.822177e-05 0)
(0.100129881 9.86943707e-05 0)
(0.100120164 9.88921387e-05 0)
(0.100110564 9.88432378e-05 0)
(0.100101091 9.85732467e-05 0)
(0.100091752 9.81053973e-05 0)
(0.100082555 9.74607771e-05 0)
(0.100073504 9.66585017e-05 0)
(0.100064603 9.57158623e-05 0)
(0.100055856 9.46484535e-05 0)
(0.100047265 9.34702868e-05 0)
(0.100038832 9.21938898e-05 0)
(0.100030559 9.08303964e-05 0)
(0.100022445 8.93896258e-05 0)
(0.100014492 8.78801461e-05 0)
(0.100006699 8.63093282e-05 0)
(0.0999990657 8.46833352e-05 0)
(0.0999915934 8.30072631e-05 0)
(0.099984277 8.12845318e-05 0)
(0.0999771287 7.95193665e-05 0)
(0.0999701006 7.7706228e-05 0)
(0.0999633497 7.58730236e-05 0)
(0.0999563314 7.39027008e-05 0)
(0.0999509667 7.22654571e-05 0)
(0.0999411004 6.89972316e-05 0)
(0.100000068 -1.20065725e-05 0)
(0.100002805 -5.12648398e-05 0)
(0.100011559 -0.000108619235 0)
(0.100029993 -0.000184889711 0)
(0.100060947 -0.000275593826 0)
(0.100105961 -0.000369714624 0)
(0.100164834 -0.000451213686 0)
(0.100235084 -0.000503108176 0)
(0.100311908 -0.000512850263 0)
(0.100388966 -0.000476027871 0)
(0.100459654 -0.000396799768 0)
(0.100518305 -0.000285891044 0)
(0.100561049 -0.000157635695 0)
(0.100586298 -2.71120663e-05 0)
(0.100594222 9.20550448e-05 0)
(0.100586703 0.000190492082 0)
(0.100567155 0.000262290413 0)
(0.100539394 0.000305032853 0)
(0.100507288 0.000319329269 0)
(0.100474564 0.000307866478 0)
(0.10044458 0.000274756588 0)
(0.10042016 0.000225517012 0)
(0.100403391 0.000167581955 0)
(0.100395307 0.000110752086 0)
(0.100395463 6.68490708e-05 0)
(0.100401546 4.81665838e-05 0)
(0.100409368 6.49068413e-05 0)
(0.100413436 0.000122578163 0)
(0.100407891 0.000220303037 0)
(0.100387403 0.000350778167 0)
(0.100347915 0.000501878245 0)
(0.100287162 0.000659234964 0)
(0.100204861 0.000808923188 0)
(0.100102557 0.000939544413 0)
(0.0999832155 0.00104335463 0)
(0.0998506974 0.00111646233 0)
(0.0997092437 0.00115839457 0)
(0.0995630513 0.00117143407 0)
(0.0994159481 0.00116006569 0)
(0.0992711333 0.00113068219 0)
(0.0991309284 0.00109146321 0)
(0.0989965124 0.00105215389 0)
(0.0988676754 0.00102341761 0)
(0.0987426845 0.00101556803 0)
(0.098618373 0.00103676679 0)
(0.0984905253 0.00109109593 0)
(0.0983545446 0.00117712961 0)
(0.0982062934 0.00128761539 0)
(0.0980429181 0.00141059594 0)
(0.0978634446 0.00153183472 0)
(0.0976689749 0.00163792692 0)
(0.0974624183 0.00171918103 0)
(0.097247829 0.00177138866 0)
(0.0970295485 0.00179597597 0)
(0.0968114046 0.00179860665 0)
(0.0965961874 0.00178684546 0)
(0.0963855028 0.00176776393 0)
(0.0961799698 0.00174627194 0)
(0.0959796132 0.00172456425 0)
(0.0957842754 0.00170258398 0)
(0.095593907 0.0016790525 0)
(0.095408682 0.00165252346 0)
(0.095228963 0.00162207247 0)
(0.0950551909 0.00158750251 0)
(0.0948877714 0.00154917884 0)
(0.0947270051 0.00150771278 0)
(0.0945730708 0.00146368635 0)
(0.0944260449 0.00141751057 0)
(0.0942859349 0.00136941105 0)
(0.0941527089 0.00131948206 0)
(0.0940263144 0.00126774858 0)
(0.0939066895 0.00121420314 0)
(0.0937937699 0.00115881402 0)
(0.0936874956 0.00110151736 0)
(0.0935878199 0.00104220757 0)
(0.0934947183 0.000980733516 0)
(0.0934081958 0.000916901419 0)
(0.0933282938 0.000850481834 0)
(0.0932550924 0.000781218328 0)
(0.0931887125 0.000708837799 0)
(0.093129317 0.000633063406 0)
(0.0930771161 0.000553627717 0)
(0.0930323748 0.000470280567 0)
(0.0929954206 0.000382798069 0)
(0.092966635 0.000291015543 0)
(0.0929465357 0.000194912565 0)
(0.092935753 9.4592829e-05 0)
(0.0929344645 -9.90177475e-06 0)
(0.092943322 -0.000119398394 0)
(0.0929634993 -0.000233488874 0)
(0.0929958394 -0.000351836616 0)
(0.0930412485 -0.00047427332 0)
(0.093100579 -0.000600536728 0)
(0.0931746472 -0.000730191687 0)
(0.0932642401 -0.000862625321 0)
(0.0933700699 -0.000997039759 0)
(0.09349273 -0.00113244 0)
(0.0936326641 -0.00126763465 0)
(0.093790129 -0.0014012488 0)
(0.0939651521 -0.00153174424 0)
(0.0941574901 -0.00165745004 0)
(0.0943665952 -0.00177660585 0)
(0.09459159 -0.00188741684 0)
(0.0948312537 -0.00198811781 0)
(0.0950840249 -0.0020770433 0)
(0.0953480211 -0.00215269909 0)
(0.0956210769 -0.00221382985 0)
(0.0959007984 -0.00225947782 0)
(0.0961846329 -0.00228902745 0)
(0.0964699475 -0.00230223282 0)
(0.0967541126 -0.0022992254 0)
(0.0970345847 -0.0022805022 0)
(0.097308981 -0.00224689565 0)
(0.0975751441 -0.00219952849 0)
(0.0978311913 -0.00213975777 0)
(0.0980755472 -0.00206911247 0)
(0.0983069609 -0.00198922962 0)
(0.0985245068 -0.00190179275 0)
(0.0987275733 -0.00180847605 0)
(0.0989158396 -0.00171089648 0)
(0.0990892468 -0.00161057509 0)
(0.0992479624 -0.00150890803 0)
(0.0993923442 -0.00140714684 0)
(0.0995229031 -0.00130638724 0)
(0.0996402683 -0.00120756529 0)
(0.0997451547 -0.0011114596 0)
(0.0998383345 -0.0010186982 0)
(0.0999206123 -0.000929768792 0)
(0.099992804 -0.000845031464 0)
(0.10005572 -0.000764732547 0)
(0.100110152 -0.000689019148 0)
(0.100156864 -0.000617953524 0)
(0.100196581 -0.000551526777 0)
(0.10022999 -0.00048967173 0)
(0.100257733 -0.000432274834 0)
(0.100280408 -0.000379186856 0)
(0.100298565 -0.000330232147 0)
(0.100312711 -0.000285216535 0)
(0.100323307 -0.000243933902 0)
(0.10033077 -0.000206171473 0)
(0.100335478 -0.000171714041 0)
(0.100337771 -0.000140347489 0)
(0.100337967 -0.000111861362 0)
(0.100336366 -8.60499789e-05 0)
(0.100333239 -6.27129743e-05 0)
(0.100328823 -4.16567577e-05 0)
(0.100323313 -2.26971035e-05 0)
(0.100316885 -5.66504311e-06 0)
(0.100309649 9.58909447e-06 0)
(0.100301678 2.32115692e-05 0)
(0.100293095 3.53299509e-05 0)
(0.100284024 4.60695739e-05 0)
(0.10027455 5.5550595e-05 0)
(0.100264749 6.38808706e-05 0)
(0.100254688 7.1160839e-05 0)
(0.100244426 7.74848803e-05 0)
(0.100234018 8.29408135e-05 0)
(0.100223508 8.76101253e-05 0)
(0.100212938 9.15680535e-05 0)
(0.100202344 9.48837358e-05 0)
(0.10019176 9.76204518e-05 0)
(0.100181211 9.98358744e-05 0)
(0.100170724 0.000101582414 0)
(0.100160316 0.000102907635 0)
(0.100150007 0.000103854667 0)