/*--------------------------------*- C++ -*----------------------------------*\
| =========                 |                                                 |
| \\      /  F ield         | OpenFOAM: The Open Source CFD Toolbox           |
|  \\    /   O peration     | Version:  v2012                                 |
|   \\  /    A nd           | Website:  www.openfoam.com                      |
|    \\/     M anipulation  |                                                 |
\*---------------------------------------------------------------------------*/
FoamFile
{
    version     2.0;
    format      ascii;
    class       surfaceVectorField;
    location    "2.99";
    object      Uf;
}
// * * * * * * * * * * * * * * * * * * * * * * * * * * * * * * * * * * * * * //

dimensions      [0 1 -1 0 0 0 0];


internalField   nonuniform List<vector> 
56481
(
(0.100002448 -1.23818245e-05 0)
(0.100000156 -7.70165622e-06 0)
(0.100010565 -2.8724476e-05 0)
(0.10000351 -2.76959036e-05 0)
(0.100026224 -5.02045545e-05 0)
(0.100013038 -5.45766737e-05 0)
(0.100051425 -7.64536559e-05 0)
(0.10003165 -8.9296869e-05 0)
(0.100087586 -0.000104667739 0)
(0.100061511 -0.000129653416 0)
(0.100134812 -0.000130080775 0)
(0.100103713 -0.000170160834 0)
(0.100191381 -0.000147190495 0)
(0.100157768 -0.000203260639 0)
(0.100253718 -0.000151393445 0)
(0.100221103 -0.000221368061 0)
(0.100316933 -0.000140435232 0)
(0.100289107 -0.00021928615 0)
(0.100375723 -0.00011493009 0)
(0.100355954 -0.000195743658 0)
(0.100425273 -7.78198005e-05 0)
(0.100415794 -0.000153329489 0)
(0.100461919 -3.32323584e-05 0)
(0.100463756 -9.72452677e-05 0)
(0.10048331 1.48795728e-05 0)
(0.100496643 -3.36339687e-05 0)
(0.100492604 6.23369016e-05 0)
(0.100514076 3.02771625e-05 0)
(0.100491468 0.000104052486 0)
(0.100517521 8.87208748e-05 0)
(0.100481235 0.000136028458 0)
(0.100508807 0.00013690824 0)
(0.100463833 0.00015645527 0)
(0.100490497 0.000171541503 0)
(0.100441589 0.000164992516 0)
(0.100465607 0.000191296104 0)
(0.100416917 0.000162423185 0)
(0.100437144 0.000196412701 0)
(0.100392049 0.000150406121 0)
(0.100407882 0.000188425744 0)
(0.100368873 0.000131250615 0)
(0.100380282 0.000169743422 0)
(0.100348585 0.000107938949 0)
(0.100356337 0.000143563785 0)
(0.100331855 8.43146074e-05 0)
(0.100337419 0.000114192916 0)
(0.100319238 6.48586637e-05 0)
(0.100324218 8.64057151e-05 0)
(0.100309872 5.39914745e-05 0)
(0.100316378 6.62551925e-05 0)
(0.10030138 5.53339286e-05 0)
(0.100312021 5.95390084e-05 0)
(0.10029002 7.10590595e-05 0)
(0.100307695 7.07114232e-05 0)
(0.100271392 0.000101420399 0)
(0.100298796 0.00010178353 0)
(0.100241319 0.000144557606 0)
(0.100280359 0.000151731106 0)
(0.10019656 0.000196754293 0)
(0.100247964 0.000216619912 0)
(0.100135246 0.000253152342 0)
(0.100198454 0.000290421474 0)
(0.100057017 0.000308650953 0)
(0.100130332 0.000366244389 0)
(0.0999628819 0.000358693427 0)
(0.100043837 0.000437550624 0)
(0.0998548946 0.000399791871 0)
(0.0999406962 0.000499052384 0)
(0.0997357441 0.000429774367 0)
(0.0998236883 0.000547180555 0)
(0.0996083765 0.000447815675 0)
(0.0996961517 0.000580170342 0)
(0.0994757033 0.00045433994 0)
(0.0995615655 0.000597902842 0)
(0.0993404041 0.000450872401 0)
(0.0994232431 0.000601659595 0)
(0.0992047795 0.000439882594 0)
(0.099284126 0.000593903183 0)
(0.0990706052 0.000424619771 0)
(0.0991466208 0.000578120578 0)
(0.098938953 0.000408905241 0)
(0.0990124253 0.000558684986 0)
(0.0988099963 0.000396829615 0)
(0.0988823197 0.00054063333 0)
(0.098682865 0.000392318126 0)
(0.0987559659 0.000529248347 0)
(0.0985556486 0.000398576605 0)
(0.0986318013 0.000529393846 0)
(0.0984256214 0.00041750082 0)
(0.0985071333 0.000544667984 0)
(0.0982897018 0.000449195536 0)
(0.0983784953 0.000576568929 0)
(0.0981450586 0.000491774653 0)
(0.0982422421 0.000623946596 0)
(0.0979897077 0.000541574181 0)
(0.0980952677 0.000682989786 0)
(0.0978229325 0.000593800902 0)
(0.097935661 0.000747858509 0)
(0.0976454126 0.00064349063 0)
(0.0977631167 0.000811859478 0)
(0.0974590368 0.000686521581 0)
(0.0975789788 0.00086886051 0)
(0.0972664704 0.000720384353 0)
(0.0973859077 0.00091453318 0)
(0.0970706106 0.000744481732 0)
(0.0971872767 0.000947055809 0)
(0.0968740852 0.000759896137 0)
(0.0969864815 0.000967092838 0)
(0.0966789164 0.000768750649 0)
(0.0967863613 0.000977120556 0)
(0.0964864086 0.000773419196 0)
(0.0965888742 0.000980387938 0)
(0.0962972424 0.000775859836 0)
(0.0963950722 0.00097989482 0)
(0.0961116952 0.000777254663 0)
(0.0962053159 0.000977706649 0)
(0.0959298875 0.000777993224 0)
(0.0960196033 0.000974747345 0)
(0.095751971 0.00077790463 0)
(0.0958378783 0.000971009659 0)
(0.0955782171 0.000776579449 0)
(0.0956602242 0.000965985804 0)
(0.0954090133 0.000773637673 0)
(0.0954869191 0.000959095429 0)
(0.0952448051 0.000768867049 0)
(0.095318385 0.000949958677 0)
(0.0950860273 0.000762232946 0)
(0.0951550914 0.000938473445 0)
(0.094933055 0.000753810923 0)
(0.0949974691 0.00092474776 0)
(0.0947861852 0.000743703396 0)
(0.0948458628 0.000908976316 0)
(0.0946456415 0.000731982022 0)
(0.0947005239 0.000891336103 0)
(0.0945115919 0.000718667872 0)
(0.0945616284 0.000871935355 0)
(0.0943841654 0.0007037395 0)
(0.0944293025 0.000850811545 0)
(0.0942634644 0.000687151547 0)
(0.094303642 0.000827954659 0)
(0.0941495728 0.000668850611 0)
(0.0941847242 0.000803332512 0)
(0.0940425605 0.000648783306 0)
(0.0940726133 0.000776905919 0)
(0.0939424888 0.000626898007 0)
(0.0939673655 0.000748632836 0)
(0.0938494179 0.000603144151 0)
(0.0938690339 0.000718466661 0)
(0.0937634171 0.000577472023 0)
(0.0937776778 0.000686353854 0)
(0.0936845806 0.000549832767 0)
(0.0936933749 0.00065223323 0)
(0.0936130606 0.000520176923 0)
(0.0936162357 0.000616032775 0)
(0.0935491737 0.000488431673 0)
(0.0935464382 0.000577659684 0)
(0.0934932121 0.0004544655 0)
(0.0934842309 0.000536930841 0)
(0.0934451433 0.000418138256 0)
(0.0934297849 0.000493528968 0)
(0.0934052949 0.000379294768 0)
(0.0933831813 0.000447108299 0)
(0.0933738332 0.000337714232 0)
(0.0933445519 0.000397781195 0)
(0.0933507758 0.00029316556 0)
(0.0933140263 0.000345495955 0)
(0.0933361618 0.000245449323 0)
(0.0932916742 0.000289985908 0)
(0.0933299051 0.0001944728 0)
(0.0932775842 0.000231176911 0)
(0.093331722 0.0001403941 0)
(0.0932718556 0.000169231668 0)
(0.0933411458 8.36634606e-05 0)
(0.0932746174 0.000104603153 0)
(0.0933574836 2.56126515e-05 0)
(0.0932862469 3.79919474e-05 0)
(0.0933819889 -3.18075528e-05 0)
(0.0933067094 -3.11158009e-05 0)
(0.0934195917 -8.85795474e-05 0)
(0.0933372273 -0.000101043088 0)
(0.0934699229 -0.000146141648 0)
(0.0933801384 -0.00017150115 0)
(0.0935331236 -0.000204989413 0)
(0.0934360365 -0.000243558012 0)
(0.0936092824 -0.000264979226 0)
(0.0935047411 -0.000317030037 0)
(0.0936984833 -0.000325949874 0)
(0.0935865177 -0.000391682826 0)
(0.0938007789 -0.000387679741 0)
(0.0936817245 -0.000467312075 0)
(0.0939161504 -0.000449791992 0)
(0.0937904683 -0.000543532495 0)
(0.0940444971 -0.000511804094 0)
(0.0939127295 -0.000619803909 0)
(0.0941856228 -0.000573176701 0)
(0.0940484343 -0.000695503041 0)
(0.0943392136 -0.000633324063 0)
(0.0941973933 -0.000769937248 0)
(0.0945048186 -0.000691619899 0)
(0.0943592618 -0.000842349199 0)
(0.0946818391 -0.00074740957 0)
(0.0945335358 -0.000911934783 0)
(0.0948695243 -0.000800025402 0)
(0.0947195463 -0.000977864929 0)
(0.0950669735 -0.000848805368 0)
(0.094916454 -0.00103930859 0)
(0.095273143 -0.000893115269 0)
(0.0951232514 -0.00109545893 0)
(0.0954868585 -0.000932372522 0)
(0.095338773 -0.00114556177 0)
(0.0957068301 -0.000966068729 0)
(0.0955617096 -0.0011889437 0)
(0.0959316735 -0.000993789088 0)
(0.0957906283 -0.00122503771 0)
(0.0961599332 -0.00101522711 0)
(0.0960239983 -0.00125340458 0)
(0.0963901107 -0.00103019413 0)
(0.0962602203 -0.00127374875 0)
(0.0966206935 -0.00103862355 0)
(0.0964976608 -0.00128592794 0)
(0.0968501877 -0.00104057013 0)
(0.096734688 -0.0012899561 0)
(0.0970771477 -0.0010362049 0)
(0.0969697082 -0.00128600006 0)
(0.0973002054 -0.00102580621 0)
(0.0972011998 -0.00127437017 0)
(0.0975180957 -0.00100974751 0)
(0.097427745 -0.00125550585 0)
(0.097729677 -0.000988482574 0)
(0.0976480556 -0.00122995699 0)
(0.0979339467 -0.000962528769 0)
(0.0978609928 -0.00119836246 0)
(0.0981300514 -0.000932449418 0)
(0.0980655811 -0.00116142689 0)
(0.0983172916 -0.000898836022 0)
(0.0982610157 -0.0011198971 0)
(0.0984951217 -0.000862291166 0)
(0.098446664 -0.00107453929 0)
(0.0986631458 -0.000823412821 0)
(0.0986220616 -0.00102611801 0)
(0.0988211098 -0.000782780643 0)
(0.0987869041 -0.000975377543 0)
(0.0989688911 -0.000740944478 0)
(0.0989410358 -0.00092302639 0)
(0.0991064856 -0.000698415324 0)
(0.0990844354 -0.000869724845 0)
(0.0992339948 -0.000655658625 0)
(0.0992172006 -0.000816075829 0)
(0.0993516108 -0.000613089899 0)
(0.0993395314 -0.000762618787 0)
(0.0994596023 -0.000571072357 0)
(0.099451714 -0.00070982635 0)
(0.099558301 -0.000529916364 0)
(0.0995541045 -0.000658103382 0)
(0.0996480879 -0.000489880492 0)
(0.0996471143 -0.000607788113 0)
(0.0997293818 -0.000451173689 0)
(0.099731196 -0.000559154896 0)
(0.0998026284 -0.00041395826 0)
(0.0998068314 -0.000512418152 0)
(0.0998682905 -0.000378353552 0)
(0.0998745204 -0.000467737205 0)
(0.0999268403 -0.000344440169 0)
(0.0999347719 -0.000425221697 0)
(0.0999787529 -0.000312264576 0)
(0.0999880962 -0.000384937308 0)
(0.1000245 -0.000281843758 0)
(0.100034998 -0.00034691164 0)
(0.100064544 -0.000253169557 0)
(0.100075974 -0.000311140004 0)
(0.100099339 -0.00022621296 0)
(0.100111503 -0.000277590978 0)
(0.100129323 -0.000200928602 0)
(0.100142049 -0.000246211801 0)
(0.100154921 -0.000177259184 0)
(0.100168058 -0.000216933624 0)
(0.100176539 -0.000155139498 0)
(0.100189954 -0.000189676427 0)
(0.100194567 -0.000134500487 0)
(0.10020814 -0.000164353595 0)
(0.100209376 -0.00011527396 0)
(0.100222994 -0.000140876323 0)
(0.100221318 -9.73980703e-05 0)
(0.100234874 -0.000119157836 0)
(0.10023072 -8.08226708e-05 0)
(0.100244106 -9.91165528e-05 0)
(0.100237878 -6.55123607e-05 0)
(0.100250991 -8.06769962e-05 0)
(0.100243045 -5.14433008e-05 0)
(0.100255793 -6.37684934e-05 0)
(0.100246425 -3.8591143e-05 0)
(0.100258746 -4.83218328e-05 0)
(0.100248178 -2.69148935e-05 0)
(0.100260045 -3.42627378e-05 0)
(0.100248434 -1.63465562e-05 0)
(0.100259859 -2.15048411e-05 0)
(0.100247306 -6.7708043e-06 0)
(0.100258344 -9.94974712e-06 0)
(0.100244941 1.95999905e-06 0)
(0.100255632 5.18535385e-07 0)
(0.100241734 9.87856801e-06 0)
(0.10025191 9.88175409e-06 0)
(0.100237719 1.69461724e-05 0)
(0.100247385 1.83353411e-05 0)
(0.100232955 2.32047754e-05 0)
(0.100242138 2.58599458e-05 0)
(0.100227496 2.87290473e-05 0)
(0.100236219 3.2536308e-05 0)
(0.10022141 3.35863879e-05 0)
(0.10022971 3.84280623e-05 0)
(0.10021477 3.78425806e-05 0)
(0.100222686 4.35988666e-05 0)
(0.10020765 4.15620291e-05 0)
(0.100215215 4.81170616e-05 0)
(0.100200122 4.48029789e-05 0)
(0.100207363 5.204571e-05 0)
(0.100192258 4.76154173e-05 0)
(0.100199193 5.54406586e-05 0)
(0.100184121 5.00414097e-05 0)
(0.100190766 5.83565582e-05 0)
(0.100175767 5.21169102e-05 0)
(0.100182135 6.08405941e-05 0)
(0.100167247 5.38731818e-05 0)
(0.100173349 6.29339972e-05 0)
(0.100158603 5.53377272e-05 0)
(0.100164449 6.46731309e-05 0)
(0.100149874 5.65350997e-05 0)
(0.100155472 6.60903647e-05 0)
(0.100141091 5.74876259e-05 0)
(0.100146452 6.72148303e-05 0)
(0.100132282 5.82159653e-05 0)
(0.100137416 6.80730274e-05 0)
(0.100123472 5.87394684e-05 0)
(0.100128388 6.86892712e-05 0)
(0.10011468 5.90763577e-05 0)
(0.100119388 6.90859964e-05 0)
(0.100105926 5.92437875e-05 0)
(0.100110435 6.92839484e-05 0)
(0.100097224 5.92578425e-05 0)
(0.100101543 6.93023056e-05 0)
(0.100088588 5.91335139e-05 0)
(0.100092727 6.91587671e-05 0)
(0.10008003 5.88846708e-05 0)
(0.100083997 6.88696162e-05 0)
(0.100071562 5.85240338e-05 0)
(0.100075364 6.84497683e-05 0)
(0.100063191 5.80631578e-05 0)
(0.100066838 6.79128131e-05 0)
(0.100054928 5.75124284e-05 0)
(0.100058424 6.72710574e-05 0)
(0.100046779 5.68810803e-05 0)
(0.100050132 6.65355674e-05 0)
(0.10003875 5.61772476e-05 0)
(0.100041965 6.57162186e-05 0)
(0.100030847 5.5408051e-05 0)
(0.10003393 6.48217653e-05 0)
(0.100023076 5.45797134e-05 0)
(0.10002603 6.38599219e-05 0)
(0.100015439 5.36976685e-05 0)
(0.10001827 6.28374346e-05 0)
(0.100007942 5.27666108e-05 0)
(0.100010652 6.17601028e-05 0)
(0.100000588 5.17905469e-05 0)
(0.100003179 6.0632761e-05 0)
(0.0999933792 5.07727166e-05 0)
(0.0999958549 5.94593726e-05 0)
(0.0999863204 4.9716076e-05 0)
(0.0999886788 5.82426559e-05 0)
(0.0999794155 4.86208526e-05 0)
(0.099981666 5.69854464e-05 0)
(0.0999726706 4.74937145e-05 0)
(0.0999747759 5.56833019e-05 0)
(0.0999660927 4.63042258e-05 0)
(0.0999681647 5.43528586e-05 0)
(0.0999597031 4.51616772e-05 0)
(0.099961326 5.29025727e-05 0)
(0.0999535039 4.35394214e-05 0)
(0.0999561045 5.16622544e-05 0)
(0.0999466885 4.91066712e-05 0)
(0.100000651 -2.13359441e-05 0)
(0.100000083 -8.45178905e-06 0)
(0.100006072 -5.07372754e-05 0)
(0.100002865 -3.39379159e-05 0)
(0.10001899 -8.96778276e-05 0)
(0.100011514 -6.94518859e-05 0)
(0.100042131 -0.000137325368 0)
(0.100029354 -0.000115944181 0)
(0.100077746 -0.000188911149 0)
(0.100058916 -0.000170664306 0)
(0.100126671 -0.000236271559 0)
(0.100101545 -0.000226498841 0)
(0.100187538 -0.000269873029 0)
(0.100156955 -0.000273349861 0)
(0.100256578 -0.000281614549 0)
(0.100222667 -0.00030086818 0)
(0.100328193 -0.000267309933 0)
(0.10029398 -0.000301752758 0)
(0.100396062 -0.000227652463 0)
(0.100364793 -0.000273895132 0)
(0.100454348 -0.000167492578 0)
(0.10042886 -0.000220446966 0)
(0.100498759 -9.41526628e-05 0)
(0.10048095 -0.00014838504 0)
(0.100527355 -1.55928974e-05 0)
(0.100517714 -6.65631774e-05 0)
(0.100539171 6.01424607e-05 0)
(0.100537817 1.6670587e-05 0)
(0.100534974 0.000125932952 0)
(0.100542013 9.35537229e-05 0)
(0.100518177 0.000176939003 0)
(0.100532534 0.000156250558 0)
(0.100492405 0.000210576809 0)
(0.100512292 0.000201218404 0)
(0.100461334 0.000226319662 0)
(0.100484719 0.000227074834 0)
(0.100428315 0.000225307598 0)
(0.100453301 0.000234435144 0)
(0.100396351 0.000209872152 0)
(0.100421249 0.000225232849 0)
(0.100368027 0.000183267551 0)
(0.100391399 0.000202358092 0)
(0.1003454 0.000149789443 0)
(0.100366112 0.000169619991 0)
(0.100329911 0.000115067813 0)
(0.100347142 0.000132027723 0)
(0.100321512 8.58953947e-05 0)
(0.100335305 9.60774154e-05 0)
(0.100318731 6.94230084e-05 0)
(0.100330067 6.94581738e-05 0)
(0.100318559 7.19531455e-05 0)
(0.100329309 5.97373747e-05 0)
(0.100316676 9.75396342e-05 0)
(0.100329328 7.28796802e-05 0)
(0.100307939 0.00014688495 0)
(0.100325216 0.000111844247 0)
(0.100287163 0.00021699737 0)
(0.100311626 0.000175655019 0)
(0.100250008 0.0003017623 0)
(0.100283682 0.000259404228 0)
(0.100193682 0.000393226525 0)
(0.100237773 0.000355281985 0)
(0.100117289 0.000483142186 0)
(0.100172043 0.000454211395 0)
(0.100021788 0.000564302061 0)
(0.100086517 0.000547521258 0)
(0.0999096303 0.000631385332 0)
(0.0999828904 0.00062820408 0)
(0.0997842404 0.000681265684 0)
(0.0998640968 0.000691568821 0)
(0.09964949 0.000712908077 0)
(0.0997337827 0.000735337567 0)
(0.0995092583 0.000727061511 0)
(0.0995958316 0.000759381745 0)
(0.0993671188 0.000725940284 0)
(0.0994539935 0.000765335298 0)
(0.0992261164 0.000713001102 0)
(0.099311622 0.000756269554 0)
(0.0990885766 0.000692808561 0)
(0.099171471 0.000736499705 0)
(0.0989559023 0.000670879483 0)
(0.0990354958 0.000711461469 0)
(0.098828361 0.000653348334 0)
(0.0989046302 0.00068749913 0)
(0.0987049236 0.000646332497 0)
(0.0987785747 0.000671388362 0)
(0.0985832511 0.000654998972 0)
(0.0986556795 0.000669501484 0)
(0.0984599168 0.00068250219 0)
(0.0985330299 0.000686689283 0)
(0.0983308969 0.000729101097 0)
(0.0984068031 0.000725137371 0)
(0.0981922758 0.000791796116 0)
(0.0982728866 0.000783570876 0)
(0.0980410224 0.000864713882 0)
(0.0981276535 0.000857160274 0)
(0.0978756363 0.000940235929 0)
(0.0979687099 0.000938303124 0)
(0.0976964731 0.00101060358 0)
(0.0977954111 0.0010181686 0)
(0.0975056437 0.00106954537 0)
(0.0976089917 0.00108860346 0)
(0.0973065118 0.00111344786 0)
(0.0974122641 0.00114383654 0)
(0.0971029456 0.00114174238 0)
(0.0972089717 0.00118146536 0)
(0.0968985508 0.00115645325 0)
(0.0970029949 0.00120245643 0)
(0.0966961036 0.00116113681 0)
(0.0967976442 0.00121024158 0)
(0.0964973117 0.00115962336 0)
(0.0965952302 0.00120929987 0)
(0.0963029094 0.0011549862 0)
(0.0963969868 0.00120375193 0)
(0.0961129803 0.0011490131 0)
(0.0962032962 0.00119641291 0)
(0.0959273466 0.00114222423 0)
(0.0960140711 0.00118850733 0)
(0.0957458839 0.00113427576 0)
(0.0958291306 0.00117996667 0)
(0.0955686818 0.00112449081 0)
(0.0956484489 0.00117003664 0)
(0.0953960522 0.00111228857 0)
(0.0954722374 0.00115788103 0)
(0.0952284404 0.00109739495 0)
(0.0953008942 0.00114296619 0)
(0.0950663117 0.00107984302 0)
(0.0951348913 0.00112516714 0)
(0.094910066 0.00105985091 0)
(0.0949746681 0.00110466695 0)
(0.0947600026 0.00103767863 0)
(0.0948205705 0.00108177668 0)
(0.0946163247 0.00101353114 0)
(0.0946728386 0.00105678327 0)
(0.0944791668 0.000987525299 0)
(0.0945316269 0.00102987474 0)
(0.0943486214 0.000959702898 0)
(0.0943970344 0.00100113657 0)
(0.0942247584 0.000930060472 0)
(0.094269129 0.00097058471 0)
(0.0941076354 0.000898573806 0)
(0.0941479619 0.000938201462 0)
(0.0939973021 0.000865209156 0)
(0.0940335747 0.000903956347 0)
(0.0938938056 0.000829923916 0)
(0.0939260032 0.000867810658 0)
(0.0937971968 0.000792663237 0)
(0.0938252836 0.000829713125 0)
(0.0937075406 0.000753357199 0)
(0.0937314597 0.000789594272 0)
(0.0936249278 0.00071191832 0)
(0.0936445934 0.000747363105 0)
(0.0935494865 0.000668236867 0)
(0.0935647738 0.000702904617 0)
(0.0934813866 0.000622153203 0)
(0.0934921246 0.000656077715 0)
(0.0934207992 0.000573421272 0)
(0.0934267974 0.000606698175 0)
(0.0933678245 0.00052177085 0)
(0.0933689381 0.000554530115 0)
(0.0933224459 0.000466942254 0)
(0.0933186434 0.000499362506 0)
(0.0932848185 0.000408653512 0)
(0.0932760227 0.00044110965 0)
(0.0932550168 0.00034668321 0)
(0.0932412791 0.000379813071 0)
(0.0932331549 0.000280961901 0)
(0.0932146603 0.00031516018 0)
(0.0932195907 0.00021159405 0)
(0.0931964576 0.000246796349 0)
(0.0932147682 0.000138859671 0)
(0.0931869763 0.000174784824 0)
(0.0932195341 6.3130576e-05 0)
(0.0931864562 9.91151882e-05 0)
(0.0932355168 -1.53780265e-05 0)
(0.093195066 1.9587574e-05 0)
(0.0932612133 -9.57044533e-05 0)
(0.0932135768 -6.07056802e-05 0)
(0.0932977579 -0.000177108181 0)
(0.0932429311 -0.000143124716 0)
(0.0933463322 -0.000260134692 0)
(0.0932839689 -0.000227435239 0)
(0.0934074605 -0.000345034349 0)
(0.0933376178 -0.00031394812 0)
(0.0934817319 -0.000431508584 0)
(0.0934043442 -0.000402554755 0)
(0.093569568 -0.000519194826 0)
(0.0934845168 -0.000492827387 0)
(0.0936712139 -0.000607700572 0)
(0.0935785581 -0.000584358848 0)
(0.0937868192 -0.000696485668 0)
(0.0936867667 -0.000676653741 0)
(0.0939164338 -0.00078487432 0)
(0.0938092916 -0.000769057044 0)
(0.0940599774 -0.00087209653 0)
(0.0939461726 -0.000860795719 0)
(0.0942172209 -0.000957301406 0)
(0.0940973162 -0.000951005494 0)
(0.0943877706 -0.00103957123 0)
(0.0942624577 -0.00103873975 0)
(0.0945710547 -0.00111794675 0)
(0.0944411455 -0.0011229891 0)
(0.0947663144 -0.00119145586 0)
(0.0946327318 -0.00120270948 0)
(0.0949726031 -0.00125914343 0)
(0.0948363635 -0.00127685312 0)
(0.0951887908 -0.00132010254 0)
(0.0950509818 -0.00134440234 0)
(0.0954135764 -0.00137350644 0)
(0.0952753298 -0.00140440574 0)
(0.0956455061 -0.00141863866 0)
(0.0955079686 -0.0014560142 0)
(0.0958829989 -0.00145492008 0)
(0.0957473016 -0.0014985143 0)
(0.0961243785 -0.00148193078 0)
(0.0959916061 -0.00153135673 0)
(0.0963679091 -0.00149942565 0)
(0.0962390717 -0.00155417792 0)
(0.096611836 -0.00150734252 0)
(0.096487844 -0.00156681351 0)
(0.0968544266 -0.00150580256 0)
(0.0967360701 -0.00156930274 0)
(0.0970940099 -0.00149510279 0)
(0.0969819442 -0.0015618838 0)
(0.0973290139 -0.00147570172 0)
(0.0972237504 -0.00154498085 0)
(0.0975579973 -0.00144819909 0)
(0.0974599008 -0.00151918366 0)
(0.0977796745 -0.00141331125 0)
(0.0976889668 -0.00148522169 0)
(0.0979929343 -0.00137184385 0)
(0.0979097017 -0.00144393435 0)
(0.0981968505 -0.00132466352 0)
(0.0981210565 -0.00139623937 0)
(0.0983906856 -0.00127267 0)
(0.0983221861 -0.00134310116 0)
(0.098573889 -0.00121677007 0)
(0.0985124491 -0.00128550081 0)
(0.0987460889 -0.0011578541 0)
(0.0986914006 -0.00122440877 0)
(0.0989070802 -0.00109677622 0)
(0.09885878 -0.00116076143 0)
(0.0990568095 -0.00103433813 0)
(0.0990144943 -0.00109544192 0)
(0.0991953578 -0.000971276814 0)
(0.0991586004 -0.0010292653 0)
(0.0993229222 -0.000908256085 0)
(0.0992912838 -0.000962968157 0)
(0.0994397973 -0.000845861578 0)
(0.0994128388 -0.000897202221 0)
(0.0995463571 -0.000784598774 0)
(0.0995236477 -0.000832531596 0)
(0.0996430381 -0.000724893583 0)
(0.0996241624 -0.000769432978 0)
(0.0997303234 -0.0006670951 0)
(0.0997148864 -0.000708298409 0)
(0.0998087288 -0.000611479869 0)
(0.0997963591 -0.000649439912 0)
(0.0998787906 -0.000558257327 0)
(0.0998691424 -0.000593095382 0)
(0.0999410548 -0.000507576131 0)
(0.0999338085 -0.000539435397 0)
(0.0999960684 -0.000459530844 0)
(0.0999909306 -0.000488570602 0)
(0.100044372 -0.000414168794 0)
(0.100041075 -0.000440559372 0)
(0.100086493 -0.000371496964 0)
(0.100084793 -0.000395415473 0)
(0.100122946 -0.000331488619 0)
(0.100122621 -0.000353115269 0)
(0.10015422 -0.000294089697 0)
(0.100155071 -0.000313604366 0)
(0.100180787 -0.000259225083 0)
(0.10018263 -0.000276804081 0)
(0.100203092 -0.000226804657 0)
(0.100205762 -0.000242617608 0)
(0.100221554 -0.000196728937 0)
(0.1002249 -0.000210935408 0)
(0.100236565 -0.000168894142 0)
(0.100240454 -0.000181639625 0)
(0.10024849 -0.000143196451 0)
(0.100252801 -0.0001546078 0)
(0.100257659 -0.000119534763 0)
(0.100262295 -0.00012971664 0)
(0.100264373 -9.7810623e-05 0)
(0.100269259 -0.000106846985 0)
(0.100268899 -7.79258767e-05 0)
(0.100273994 -8.58891356e-05 0)
(0.100271483 -5.97804691e-05 0)
(0.100276765 -6.6743827e-05 0)
(0.100272348 -4.32712356e-05 0)
(0.10027781 -4.93182022e-05 0)
(0.100271703 -2.82906176e-05 0)
(0.100277331 -3.35194404e-05 0)
(0.100269744 -1.47275786e-05 0)
(0.100275502 -1.92492536e-05 0)
(0.100266668 -2.46970897e-06 0)
(0.100272477 -6.40751499e-06 0)
(0.100262579 8.61935912e-06 0)
(0.100268416 5.22693042e-06 0)
(0.10025756 1.86241339e-05 0)
(0.100263444 1.5661124e-05 0)
(0.100251796 2.75597865e-05 0)
(0.100257686 2.49726685e-05 0)
(0.100245385 3.54782864e-05 0)
(0.100251265 3.32426684e-05 0)
(0.10023842 4.24617118e-05 0)
(0.100244267 4.05566674e-05 0)
(0.100230977 4.85887984e-05 0)
(0.10023677 4.6998879e-05 0)
(0.100223122 5.39366911e-05 0)
(0.100228848 5.26432363e-05 0)
(0.10021492 5.85817104e-05 0)
(0.100220566 5.75623438e-05 0)
(0.100206427 6.25946123e-05 0)
(0.100211984 6.18251434e-05 0)
(0.100197696 6.60385939e-05 0)
(0.100203158 6.54944158e-05 0)
(0.100188776 6.89695315e-05 0)
(0.100194139 6.8627739e-05 0)
(0.100179713 7.14370617e-05 0)
(0.100184974 7.1276913e-05 0)
(0.100170548 7.34855379e-05 0)
(0.100175704 7.34883301e-05 0)
(0.100161316 7.51547471e-05 0)
(0.100166366 7.53036519e-05 0)
(0.10015205 7.64805192e-05 0)
(0.100156994 7.67603923e-05 0)
(0.100142777 7.74952639e-05 0)
(0.100147615 7.78924565e-05 0)
(0.100133522 7.82284326e-05 0)
(0.100138254 7.87306394e-05 0)
(0.100124305 7.87068891e-05 0)
(0.100128932 7.93030428e-05 0)
(0.100115143 7.89552003e-05 0)
(0.100119667 7.96353981e-05 0)
(0.100106053 7.89958636e-05 0)
(0.100110474 7.97513073e-05 0)
(0.100097048 7.88494877e-05 0)
(0.100101367 7.96724227e-05 0)
(0.100088138 7.85349372e-05 0)
(0.100092356 7.94185831e-05 0)
(0.100079333 7.80694484e-05 0)
(0.100083453 7.90079202e-05 0)
(0.100070643 7.74687242e-05 0)
(0.100074664 7.84569452e-05 0)
(0.100062074 7.67470181e-05 0)
(0.100065998 7.77806251e-05 0)
(0.100053631 7.5917212e-05 0)
(0.10005746 7.69924566e-05 0)
(0.100045321 7.49908887e-05 0)
(0.100049056 7.61045388e-05 0)
(0.100037148 7.39784071e-05 0)
(0.10004079 7.51276484e-05 0)
(0.100029116 7.28889801e-05 0)
(0.100032666 7.40713202e-05 0)
(0.100021227 7.17307454e-05 0)
(0.100024687 7.29439284e-05 0)
(0.100013485 7.05108051e-05 0)
(0.100016856 7.17527654e-05 0)
(0.100005891 6.92351894e-05 0)
(0.100009174 7.05040972e-05 0)
(0.0999984487 6.79088434e-05 0)
(0.100001643 6.92031299e-05 0)
(0.0999911585 6.65354124e-05 0)
(0.0999942649 6.78540983e-05 0)
(0.0999840226 6.51178886e-05 0)
(0.0999870377 6.64597614e-05 0)
(0.0999770423 6.36551564e-05 0)
(0.0999799752 6.50233711e-05 0)
(0.0999702195 6.21549509e-05 0)
(0.0999730335 6.35399078e-05 0)
(0.0999635504 6.05768018e-05 0)
(0.0999663684 6.20324432e-05 0)
(0.0999570368 5.90665819e-05 0)
(0.0999594609 6.04030517e-05 0)
(0.0999506112 5.6975457e-05 0)
(0.0999541818 5.90614237e-05 0)
(0.0999446294 5.6347489e-05 0)
(0.100001633 -2.24714886e-05 0)
(0.100000096 -1.03321639e-05 0)
(0.100008183 -5.51678342e-05 0)
(0.100002996 -4.14805417e-05 0)
(0.100022296 -9.94165614e-05 0)
(0.100011826 -8.57025141e-05 0)
(0.100046528 -0.000154162059 0)
(0.100029943 -0.000143848774 0)
(0.100082826 -0.000214190194 0)
(0.100059991 -0.000212461308 0)
(0.100131815 -0.000270341848 0)
(0.100103423 -0.000282910305 0)
(0.100192124 -0.000311604337 0)
(0.100160013 -0.000342796886 0)
(0.100260175 -0.000328365928 0)
(0.100227308 -0.000379229943 0)
(0.100330687 -0.000315389962 0)
(0.100300584 -0.00038294803 0)
(0.100397681 -0.000273045871 0)
(0.100373638 -0.000351040493 0)
(0.10045557 -0.000206620184 0)
(0.100440067 -0.000287106167 0)
(0.100499993 -0.000124586275 0)
(0.10049444 -0.00019953956 0)
(0.100528364 -3.68103098e-05 0)
(0.100533055 -9.92327226e-05 0)
(0.100540635 4.73202047e-05 0)
(0.100554494 2.54042975e-06 0)
(0.100539735 0.000120363514 0)
(0.100559768 9.45906709e-05 0)
(0.10052681 0.000177196486 0)
(0.100551066 0.000171133052 0)
(0.100504759 0.000215037214 0)
(0.100531136 0.000226610428 0)
(0.100476864 0.000233325847 0)
(0.100503467 0.000259196278 0)
(0.100446436 0.000233257599 0)
(0.100471711 0.000269474283 0)
(0.100416511 0.000217274826 0)
(0.100439304 0.000259691543 0)
(0.100389699 0.000188820154 0)
(0.100409311 0.000233232131 0)
(0.10036804 0.000152459611 0)
(0.100384285 0.000194561396 0)
(0.100352772 0.000114138518 0)
(0.100366064 0.000149608728 0)
(0.100344078 8.11831649e-05 0)
(0.100355472 0.000106088716 0)
(0.100340831 6.16762529e-05 0)
(0.100351988 7.31969329e-05 0)
(0.100340263 6.30690126e-05 0)
(0.100353483 6.03915087e-05 0)
(0.100338063 9.04361639e-05 0)
(0.100356179 7.54133485e-05 0)
(0.100329095 0.000145059761 0)
(0.100355014 0.000122171036 0)
(0.100308326 0.00022392371 0)
(0.100344421 0.000199570298 0)
(0.10027162 0.000320298968 0)
(0.100319289 0.00030167174 0)
(0.100216303 0.000425165502 0)
(0.100275783 0.000418980771 0)
(0.100141436 0.000528969901 0)
(0.100211866 0.000540421587 0)
(0.100047784 0.000623203685 0)
(0.100127445 0.000655362889 0)
(0.0999375243 0.000701459325 0)
(0.100024169 0.000755170042 0)
(0.0998138082 0.00075986924 0)
(0.0999049969 0.000834029825 0)
(0.0996802936 0.000797041712 0)
(0.0997736758 0.00088908172 0)
(0.0995407331 0.000813718581 0)
(0.0996342484 0.000920087795 0)
(0.0993986554 0.000812384751 0)
(0.0994906636 0.000928939871 0)
(0.0992571222 0.000796977145 0)
(0.0993464831 0.000919247175 0)
(0.099118516 0.000772708662 0)
(0.0992046491 0.000896106894 0)
(0.0989843219 0.000745894023 0)
(0.099067259 0.000865988038 0)
(0.0988549064 0.000723595012 0)
(0.0989353287 0.00083652297 0)
(0.0987293508 0.000712932201 0)
(0.0988085751 0.000815967534 0)
(0.0986054329 0.00072004212 0)
(0.0986853015 0.000812194914 0)
(0.0984798453 0.000748849514 0)
(0.0985624868 0.000831305259 0)
(0.0983486801 0.00079999246 0)
(0.0984361517 0.000876176151 0)
(0.0982081161 0.000870298089 0)
(0.0983019931 0.000945432399 0)
(0.0980551656 0.000953107628 0)
(0.0981561814 0.00103328512 0)
(0.0978882909 0.00103950365 0)
(0.097996138 0.00113046184 0)
(0.0977077252 0.00112017925 0)
(0.097821081 0.00122609278 0)
(0.0975154018 0.00118743255 0)
(0.0976321809 0.00131006676 0)
(0.0973145095 0.00123668782 0)
(0.0974322707 0.0013751671 0)
(0.0971088013 0.00126708976 0)
(0.097225197 0.00141834147 0)
(0.096901861 0.00128104265 0)
(0.0970150051 0.00144075131 0)
(0.096696534 0.00128293906 0)
(0.0968052003 0.00144667882 0)
(0.0964946581 0.00127758428 0)
(0.0965982824 0.00144176295 0)
(0.0962971168 0.00126886761 0)
(0.0963956392 0.00143122382 0)
(0.0961041227 0.00125905611 0)
(0.0961977556 0.00141864847 0)
(0.0959155865 0.00124879091 0)
(0.0960045947 0.00140560967 0)
(0.0957314261 0.00123759308 0)
(0.0958159853 0.00139203016 0)
(0.0955517375 0.00122454849 0)
(0.0956318866 0.00137695081 0)
(0.095376818 0.00120887024 0)
(0.0954524862 0.00135930354 0)
(0.0952070916 0.00119017944 0)
(0.0952781589 0.00133840868 0)
(0.0950430043 0.00116850951 0)
(0.0951093577 0.00131411617 0)
(0.0948849411 0.00114414619 0)
(0.0949465064 0.00128667911 0)
(0.0947331887 0.00111743718 0)
(0.0947899351 0.00125652186 0)
(0.094587938 0.00108866158 0)
(0.0946398644 0.00122404171 0)
(0.0944493078 0.00105798428 0)
(0.0944964253 0.00118950954 0)
(0.094317372 0.00102547244 0)
(0.0943596885 0.00115306261 0)
(0.0941921794 0.00099113471 0)
(0.0942296908 0.00111474586 0)
(0.0940737649 0.000954953675 0)
(0.094106451 0.00107455764 0)
(0.0939621553 0.000916900057 0)
(0.0939899779 0.00103247651 0)
(0.0938573749 0.000876932352 0)
(0.0938802761 0.000988466783 0)
(0.0937594522 0.000834990543 0)
(0.0937773512 0.000942472669 0)
(0.0936684273 0.000790990459 0)
(0.0936812179 0.000894410783 0)
(0.0935843613 0.000744820724 0)
(0.0935919085 0.000844166445 0)
(0.0935073419 0.00069634123 0)
(0.0935094809 0.000791593651 0)
(0.0934374868 0.000645380861 0)
(0.093434023 0.00073651684 0)
(0.0933749317 0.00059174026 0)
(0.093365653 0.00067873131 0)
(0.0933198046 0.000535214276 0)
(0.093304508 0.000618009901 0)
(0.0932722445 0.000475646365 0)
(0.0932507386 0.000554128642 0)
(0.0932324808 0.000412947557 0)
(0.0932045302 0.000486898183 0)
(0.0932009279 0.000347089032 0)
(0.0931661525 0.000416146649 0)