/*--------------------------------*- C++ -*----------------------------------*\
| =========                 |                                                 |
| \\      /  F ield         | OpenFOAM: The Open Source CFD Toolbox           |
|  \\    /   O peration     | Version:  v2012                                 |
|   \\  /    A nd           | Website:  www.openfoam.com                      |
|    \\/     M anipulation  |                                                 |
\*---------------------------------------------------------------------------*/
FoamFile
{
    version     2.0;
    format      ascii;
    class       volVectorField;
    location    "2.34";
    object      H;
}
// * * * * * * * * * * * * * * * * * * * * * * * * * * * * * * * * * * * * * //

dimensions      [0 1 -2 0 0 0 0];


internalField   nonuniform List<vector> 
28416
(
(141.489071 0.0215777697 0)
(141.461002 0.0665784114 0)
(141.411624 0.109628287 0)
(141.341264 0.146346566 0)
(141.255913 0.172629374 0)
(141.161255 0.185634868 0)
(141.06252 0.184635526 0)
(140.964725 0.170887733 0)
(140.872487 0.146464376 0)
(140.78987 0.113318238 0)
(140.720514 0.0735231313 0)
(140.667906 0.0302295148 0)
(140.633945 -0.0122703159 0)
(140.613004 -0.0492341519 0)
(140.597559 -0.0697634057 0)
(140.586014 -0.0668338674 0)
(140.575181 -0.039883081 0)
(140.561999 0.00635517494 0)
(140.540087 0.0628263546 0)
(140.499595 0.123951715 0)
(140.440183 0.184709547 0)
(140.365879 0.239030979 0)
(140.280621 0.281599364 0)
(140.188167 0.309076034 0)
(140.092748 0.320042514 0)
(139.998696 0.3147338 0)
(139.909949 0.294885256 0)
(139.829929 0.263561655 0)
(139.761423 0.224981611 0)
(139.706311 0.184365795 0)
(139.665192 0.147697244 0)
(139.637037 0.121233928 0)
(139.619048 0.110705504 0)
(139.606972 0.120272087 0)
(139.595523 0.15141788 0)
(139.57913 0.202390599 0)
(139.55304 0.268285206 0)
(139.514221 0.341946876 0)
(139.461829 0.415508215 0)
(139.397099 0.482144283 0)
(139.322791 0.537493663 0)
(139.24232 0.580295087 0)
(139.158862 0.612083615 0)
(139.074675 0.636137556 0)
(138.990832 0.65612776 0)
(138.907347 0.674977507 0)
(138.823567 0.694276065 0)
(138.738632 0.714305776 0)
(138.651818 0.734488486 0)
(138.562705 0.753945964 0)
(138.471157 0.771920294 0)
(138.377231 0.787947312 0)
(138.281055 0.801821139 0)
(138.18277 0.813462367 0)
(138.082504 0.822795846 0)
(137.980397 0.829690776 0)
(137.876622 0.833961204 0)
(137.771405 0.835396953 0)
(137.665035 0.833795385 0)
(137.557856 0.828979503 0)
(137.450266 0.820802449 0)
(137.342711 0.809145041 0)
(137.235677 0.793912576 0)
(137.129693 0.775033702 0)
(137.025319 0.752461107 0)
(136.923146 0.726173061 0)
(136.823783 0.696175331 0)
(136.727861 0.66250355 0)
(136.636015 0.625226017 0)
(136.548892 0.584446491 0)
(136.467146 0.540305989 0)
(136.391437 0.492982457 0)
(136.322435 0.442687549 0)
(136.260822 0.389660763 0)
(136.207288 0.334158 0)
(136.162549 0.276442941 0)
(136.127337 0.216738 0)
(136.102287 0.155197259 0)
(136.087711 0.0919794817 0)
(136.083246 0.0274954846 0)
(136.091221 -0.0369260075 0)
(136.112985 -0.101464782 0)
(136.14788 -0.166426625 0)
(136.195526 -0.231484912 0)
(136.256002 -0.296221584 0)
(136.329355 -0.360255993 0)
(136.415434 -0.423179217 0)
(136.513975 -0.484555552 0)
(136.62462 -0.543937956 0)
(136.74688 -0.600866953 0)
(136.880139 -0.65487149 0)
(137.023674 -0.705478731 0)
(137.176661 -0.752229422 0)
(137.338186 -0.794696007 0)
(137.507258 -0.832500826 0)
(137.682821 -0.865331101 0)
(137.863758 -0.89294873 0)
(138.048913 -0.915194874 0)
(138.237101 -0.931990523 0)
(138.427125 -0.943334537 0)
(138.617795 -0.949300313 0)
(138.807951 -0.950031515 0)
(138.996475 -0.945736795 0)
(139.182312 -0.936683396 0)
(139.364478 -0.923189504 0)
(139.542076 -0.905615583 0)
(139.7143 -0.884354901 0)
(139.880446 -0.859823777 0)
(140.039908 -0.832451873 0)
(140.192183 -0.802672963 0)
(140.336868 -0.770916469 0)
(140.473658 -0.737600015 0)
(140.602338 -0.703122999 0)
(140.722775 -0.667861026 0)
(140.834909 -0.632160505 0)
(140.938733 -0.596332454 0)
(141.034303 -0.56063847 0)
(141.121785 -0.525296064 0)
(141.201438 -0.490501699 0)
(141.273558 -0.456433577 0)
(141.338463 -0.423247543 0)
(141.396483 -0.391075294 0)
(141.447963 -0.360024605 0)
(141.493249 -0.330179731 0)
(141.532691 -0.301600442 0)
(141.566633 -0.274317134 0)
(141.59543 -0.248338101 0)
(141.619438 -0.223657788 0)
(141.639014 -0.200261069 0)
(141.654503 -0.17812552 0)
(141.666246 -0.157223053 0)
(141.674566 -0.137520989 0)
(141.679773 -0.1189822 0)
(141.682162 -0.101562723 0)
(141.682008 -0.0852048204 0)
(141.679574 -0.0698326222 0)
(141.675135 -0.0553543628 0)
(141.669006 -0.0416829142 0)
(141.66158 -0.0287926825 0)
(141.653308 -0.0168262527 0)
(141.644597 -0.00614412902 0)
(141.635374 0.00292582583 0)
(141.624923 0.0105633359 0)
(141.61285 0.0171788651 0)
(141.599429 0.023044816 0)
(141.585001 0.0282977142 0)
(141.569784 0.0330253057 0)
(141.553945 0.0372974456 0)
(141.537631 0.0411655383 0)
(141.520968 0.0446666075 0)
(141.504065 0.0478266162 0)
(141.487021 0.0506606765 0)
(141.469918 0.0531765466 0)
(141.452823 0.0553801359 0)
(141.435782 0.0572792536 0)
(141.418836 0.0588850998 0)
(141.402017 0.0602124205 0)
(141.385352 0.0612789673 0)
(141.368865 0.0621045678 0)
(141.352581 0.0627100459 0)
(141.336521 0.0631162113 0)
(141.320706 0.0633430205 0)
(141.305157 0.0634089341 0)
(141.289891 0.0633304782 0)
(141.274929 0.0631220519 0)
(141.260284 0.0627959558 0)
(141.245971 0.0623625789 0)
(141.232002 0.0618306758 0)
(141.218386 0.0612077032 0)
(141.205131 0.0605001777 0)
(141.192242 0.0597140183 0)
(141.179724 0.0588548383 0)
(141.167581 0.0579281575 0)
(141.155813 0.0569395271 0)
(141.144422 0.0558945716 0)
(141.13341 0.0547989562 0)
(141.122776 0.0536583034 0)
(141.112521 0.0524780764 0)
(141.102646 0.0512634464 0)
(141.093152 0.0500191767 0)
(141.084039 0.0487495466 0)
(141.07531 0.0474583007 0)
(141.066967 0.0461486687 0)
(141.059008 0.0448231144 0)
(141.051447 0.0434841859 0)
(141.044254 0.042130131 0)
(141.037552 0.0407731566 0)
(141.030956 0.0393523522 0)
(141.025936 0.0381233856 0)
(141.014907 0.0358274115 0)
(141.492375 0.0448735171 0)
(141.469071 0.136092649 0)
(141.423619 0.220794144 0)
(141.353995 0.291799096 0)
(141.266306 0.342887811 0)
(141.167196 0.3698185 0)
(141.062745 0.37173514 0)
(140.958707 0.35095333 0)
(140.860424 0.310973375 0)
(140.772654 0.254956275 0)
(140.699502 0.186244214 0)
(140.64395 0.110170185 0)
(140.606003 0.0348994455 0)
(140.586619 -0.0282968975 0)
(140.584159 -0.0651759774 0)
(140.590397 -0.0674037756 0)
(140.595689 -0.0330410952 0)
(140.592221 0.033208669 0)
(140.575273 0.119880038 0)
(140.540514 0.21558783 0)
(140.485209 0.309741489 0)
(140.410168 0.392323978 0)
(140.31935 0.45546181 0)
(140.21807 0.494527428 0)
(140.112109 0.507882389 0)
(140.007242 0.496245615 0)
(139.908799 0.462261056 0)
(139.821385 0.410257634 0)
(139.748702 0.346186883 0)
(139.693268 0.277658319 0)
(139.656026 0.213790443 0)
(139.635938 0.16454297 0)
(139.629765 0.139372583 0)
(139.632187 0.145353897 0)
(139.636332 0.18520146 0)
(139.634766 0.256226489 0)
(139.620863 0.350521847 0)
(139.590127 0.456517466 0)
(139.541014 0.56155806 0)
(139.47501 0.654804742 0)
(139.395944 0.72954607 0)
(139.308777 0.7841849 0)
(139.218239 0.821666033 0)
(139.127757 0.847683591 0)
(139.038967 0.868426521 0)
(138.951858 0.888704209 0)
(138.865359 0.911016323 0)
(138.778052 0.935655062 0)
(138.688742 0.961501599 0)
(138.596717 0.986994158 0)
(138.501738 1.01083782 0)
(138.403876 1.03228135 0)
(138.303314 1.05103511 0)
(138.200238 1.06702908 0)
(138.094796 1.08019464 0)
(137.987131 1.09035908 0)
(137.877417 1.09724689 0)
(137.765895 1.10053387 0)
(137.652878 1.09990209 0)
(137.538751 1.09507058 0)
(137.423957 1.08580246 0)
(137.30899 1.07190048 0)
(137.194392 1.05320198 0)
(137.080743 1.02957789 0)
(136.968659 1.00093502 0)
(136.858788 0.967219176 0)
(136.7518 0.928417361 0)
(136.648386 0.884558547 0)
(136.549251 0.835713087 0)
(136.455109 0.781991186 0)
(136.366681 0.72354069 0)
(136.284691 0.660544373 0)
(136.209863 0.593216533 0)
(136.142915 0.521799413 0)
(136.084558 0.446557972 0)
(136.035465 0.367774854 0)
(135.996246 0.285726439 0)
(135.967469 0.200679598 0)
(135.949778 0.112992878 0)
(135.944292 0.0232442047 0)
(135.952734 -0.06772683 0)
(135.974288 -0.159523795 0)
(136.009088 -0.251980989 0)
(136.057492 -0.344594826 0)
(136.119597 -0.43678185 0)
(136.195428 -0.527970102 0)
(136.284899 -0.617537345 0)
(136.387786 -0.704813811 0)
(136.503738 -0.789108695 0)
(136.632264 -0.869722398 0)
(136.772733 -0.945958613 0)
(136.924383 -1.01714162 0)
(137.086327 -1.08263415 0)
(137.257569 -1.14185406 0)
(137.437006 -1.19429012 0)
(137.623452 -1.23951612 0)
(137.81565 -1.27720251 0)
(138.012286 -1.30712527 0)
(138.212019 -1.3291715 0)
(138.413494 -1.34334138 0)
(138.615373 -1.34974652 0)
(138.816352 -1.34860485 0)
(139.015187 -1.34023239 0)
(139.210709 -1.32503263 0)
(139.401839 -1.30348386 0)
(139.587605 -1.27612536 0)
(139.767144 -1.2435427 0)
(139.939716 -1.2063531 0)
(140.104697 -1.16519095 0)
(140.261585 -1.12069433 0)
(140.409995 -1.07349262 0)
(140.54965 -1.02419557 0)
(140.680379 -0.973383759 0)
(140.802103 -0.9216003 0)
(140.91483 -0.869342953 0)
(141.018642 -0.817055848 0)
(141.113695 -0.765114287 0)
(141.200223 -0.713833498 0)
(141.278521 -0.663496802 0)
(141.348925 -0.614358803 0)
(141.411799 -0.566639712 0)
(141.467526 -0.520522815 0)
(141.516498 -0.476154878 0)
(141.559116 -0.433647175 0)
(141.595787 -0.393075873 0)
(141.626915 -0.354480708 0)
(141.652892 -0.31787205 0)
(141.674102 -0.283238931 0)
(141.690918 -0.250554067 0)
(141.703703 -0.219776812 0)
(141.712806 -0.190855275 0)
(141.718563 -0.163728106 0)
(141.721298 -0.138326423 0)
(141.721329 -0.114576817 0)
(141.718967 -0.0924057643 0)
(141.714514 -0.0717398038 0)
(141.708255 -0.052510172 0)
(141.700426 -0.0346666146 0)
(141.69115 -0.0182013283 0)
(141.680475 -0.00310490288 0)
(141.668643 0.0105274934 0)
(141.656051 0.022424547 0)
(141.642792 0.0325981063 0)
(141.628702 0.0413966956 0)
(141.613736 0.0491252598 0)
(141.59802 0.0559485148 0)
(141.581694 0.0619723656 0)
(141.564883 0.0672817385 0)
(141.547697 0.0719446794 0)
(141.530233 0.0760215071 0)
(141.512577 0.0795679416 0)
(141.494807 0.0826313767 0)
(141.476997 0.0852501953 0)
(141.45921 0.0874564766 0)
(141.441498 0.0892784612 0)
(141.423911 0.0907418549 0)
(141.406487 0.0918706964 0)
(141.389258 0.092688187 0)
(141.372255 0.093217253 0)
(141.355501 0.0934806189 0)
(141.339016 0.0935005461 0)
(141.32282 0.0932985123 0)
(141.306929 0.0928949452 0)
(141.291357 0.0923089772 0)
(141.276118 0.0915582514 0)
(141.261224 0.0906588231 0)
(141.246684 0.0896251718 0)
(141.232507 0.088470289 0)
(141.2187 0.0872058161 0)
(141.20527 0.0858422074 0)
(141.192221 0.0843889029 0)
(141.179556 0.0828544969 0)
(141.167279 0.0812468832 0)
(141.155389 0.0795733734 0)
(141.14389 0.077840784 0)
(141.132782 0.076055487 0)
(141.122063 0.07422343 0)
(141.111736 0.0723501396 0)
(141.101799 0.0704407026 0)
(141.092254 0.0684997317 0)
(141.083098 0.0665313249 0)
(141.074334 0.0645390037 0)
(141.065961 0.062525703 0)
(141.057978 0.0604933994 0)
(141.050395 0.0584440607 0)
(141.043181 0.0563741402 0)
(141.036456 0.0542977987 0)
(141.02981 0.0521335083 0)
(141.024741 0.0502376266 0)
(141.013411 0.0468468833 0)
(141.491951 0.0546808308 0)
(141.466744 0.165043559 0)
(141.42015 0.266777438 0)
(141.350727 0.351947415 0)
(141.264092 0.413803818 0)
(141.166368 0.447549175 0)
(141.063313 0.452100776 0)
(140.960443 0.430001808 0)
(140.862901 0.385131437 0)
(140.77526 0.320941999 0)
(140.701489 0.241125204 0)
(140.64479 0.151901032 0)
(140.607272 0.0637045037 0)
(140.587805 -0.00888211529 0)
(140.581314 -0.0532979669 0)
(140.58108 -0.0603399464 0)
(140.581865 -0.0268567761 0)
(140.577548 0.043225128 0)
(140.560913 0.140098439 0)
(140.525956 0.249551808 0)
(140.471374 0.357220634 0)
(140.398683 0.45113024 0)
(140.311257 0.522445597 0)
(140.213673 0.565829563 0)
(140.111173 0.579335346 0)
(140.009169 0.563831491 0)
(139.912793 0.522381902 0)
(139.826597 0.459870128 0)
(139.75432 0.382928972 0)
(139.698591 0.300035207 0)
(139.660531 0.22141882 0)
(139.639343 0.158374151 0)
(139.632036 0.121760763 0)
(139.633486 0.119889025 0)
(139.637019 0.156401216 0)
(139.635492 0.228902102 0)
(139.62257 0.328881762 0)
(139.593848 0.443257588 0)
(139.547595 0.557283025 0)
(139.484887 0.658000482 0)
(139.409066 0.737141223 0)
(139.324665 0.792524457 0)
(139.236158 0.827554143 0)
(139.146921 0.84913667 0)
(139.058707 0.864922176 0)
(138.971704 0.880935168 0)
(138.885037 0.900347966 0)
(138.797422 0.923554635 0)
(138.707707 0.949147712 0)
(138.615157 0.975142415 0)
(138.519476 0.999891673 0)
(138.42067 1.02245304 0)
(138.318881 1.0424901 0)
(138.21427 1.05995988 0)
(138.10698 1.07482538 0)
(137.997158 1.08691276 0)
(137.884987 1.095909 0)
(137.770719 1.10143079 0)
(137.654682 1.10309625 0)
(137.537279 1.10056542 0)
(137.418978 1.09354974 0)
(137.300304 1.08180595 0)
(137.18183 1.06512885 0)
(137.064174 1.04334888 0)
(136.947992 1.01633399 0)
(136.833971 0.983992755 0)
(136.722821 0.946276693 0)
(136.61527 0.903181449 0)
(136.512054 0.854747166 0)
(136.413912 0.80105839 0)
(136.321589 0.742243363 0)
(136.235828 0.678472217 0)
(136.157369 0.60995369 0)
(136.086955 0.536930851 0)
(136.025321 0.45967796 0)
(135.973192 0.378495417 0)
(135.931285 0.293728723 0)
(135.900331 0.205785389 0)
(135.880964 0.115121656 0)
(135.87328 0.0221607737 0)
(135.879543 -0.0729155994 0)
(135.89977 -0.16956945 0)
(135.933828 -0.267262288 0)
(135.981886 -0.365489536 0)
(136.044139 -0.463647694 0)
(136.120688 -0.561069859 0)
(136.211484 -0.65704511 0)
(136.316335 -0.750820563 0)
(136.434912 -0.841613351 0)
(136.566738 -0.928623119 0)
(136.711185 -1.01104535 0)
(136.867473 -1.08808943 0)
(137.034682 -1.1590002 0)
(137.211758 -1.22308084 0)
(137.397523 -1.27971559 0)
(137.590698 -1.32838989 0)
(137.789915 -1.36870626 0)
(137.993749 -1.40039517 0)
(138.200736 -1.42332072 0)
(138.409407 -1.43748166 0)
(138.618309 -1.44300826 0)
(138.826034 -1.44015551 0)
(139.031242 -1.42929289 0)
(139.232682 -1.41089138 0)
(139.42921 -1.3855081 0)
(139.6198 -1.35376935 0)
(139.803555 -1.31635273 0)
(139.979714 -1.27396931 0)
(140.147649 -1.22734624 0)
(140.306869 -1.17721066 0)
(140.457006 -1.12427516 0)
(140.59782 -1.06922508 0)
(140.729178 -1.0127078 0)
(140.85105 -0.955323833 0)
(140.963498 -0.897619695 0)
(141.066664 -0.840082515 0)
(141.160761 -0.783137016 0)
(141.246069 -0.727149453 0)
(141.322922 -0.672435539 0)
(141.391694 -0.619263875 0)
(141.452788 -0.567856775 0)
(141.506623 -0.518391839 0)
(141.553629 -0.471004676 0)
(141.594237 -0.425792214 0)
(141.628878 -0.382816794 0)
(141.657977 -0.342112382 0)
(141.681945 -0.303686202 0)
(141.701185 -0.267520995 0)
(141.716087 -0.233579223 0)
(141.727025 -0.201807628 0)
(141.734363 -0.172141395 0)
(141.738445 -0.144507794 0)
(141.739593 -0.118829758 0)
(141.738108 -0.0950311122 0)
(141.734265 -0.0730449194 0)
(141.728321 -0.0528169205 0)
(141.720524 -0.0343024268 0)
(141.711115 -0.0174446311 0)
(141.700457 -0.00208973562 0)
(141.689053 0.0118182217 0)
(141.676833 0.024493956 0)
(141.663636 0.0360199379 0)
(141.64952 0.046297884 0)
(141.634548 0.0553445309 0)
(141.618779 0.0632913425 0)
(141.602322 0.0702646717 0)
(141.585301 0.0763711978 0)
(141.567838 0.0817044804 0)
(141.550053 0.0863422659 0)
(141.532056 0.0903470876 0)
(141.513941 0.0937703615 0)
(141.495786 0.0966565643 0)
(141.477657 0.0990457499 0)
(141.459608 0.100975128 0)
(141.441678 0.102480406 0)
(141.423902 0.103596348 0)
(141.406311 0.104356482 0)
(141.388929 0.104792566 0)
(141.371782 0.104934345 0)
(141.354891 0.104809554 0)
(141.338277 0.10444395 0)
(141.321958 0.10386126 0)
(141.305953 0.10308313 0)
(141.290276 0.102129118 0)
(141.274941 0.101016785 0)
(141.259961 0.0997618053 0)
(141.245346 0.0983781237 0)
(141.231103 0.0968781367 0)
(141.217241 0.0952729122 0)
(141.203764 0.093572411 0)
(141.190675 0.0917856986 0)
(141.177977 0.0899211311 0)
(141.165672 0.0879864953 0)
(141.153759 0.0859890988 0)
(141.14224 0.0839358181 0)
(141.131113 0.0818331028 0)
(141.120379 0.0796869581 0)
(141.110037 0.0775029152 0)
(141.100086 0.0752859922 0)
(141.090527 0.0730406456 0)
(141.081358 0.0707707241 0)
(141.072581 0.0684794085 0)
(141.064195 0.0661692061 0)
(141.056198 0.0638416239 0)
(141.0486 0.0614981486 0)
(141.041368 0.0591349286 0)
(141.03462 0.0567672372 0)
(141.027956 0.0543095419 0)
(141.022863 0.0521582381 0)
(141.011643 0.0483718621 0)
(141.492427 0.0694503886 0)
(141.468872 0.210716845 0)
(141.423595 0.342172844 0)
(141.354295 0.452988432 0)
(141.266284 0.534021361 0)
(141.165806 0.578890783 0)
(141.059025 0.586026426 0)
(140.952006 0.558551666 0)
(140.850477 0.501421009 0)
(140.759579 0.419151268 0)
(140.683789 0.316593762 0)
(140.626616 0.201733251 0)
(140.589662 0.0876112186 0)
(140.572256 -0.00902911195 0)
(140.572514 -0.0702753082 0)
(140.581977 -0.08209459 0)
(140.591599 -0.0405758489 0)
(140.593887 0.0480321653 0)
(140.582231 0.170049373 0)
(140.550751 0.308419413 0)
(140.497292 0.445415619 0)
(140.423041 0.565381247 0)
(140.331719 0.656681942 0)
(140.228625 0.71240626 0)
(140.11985 0.73005958 0)
(140.011645 0.71072496 0)
(139.909933 0.658221581 0)
(139.819956 0.578612086 0)
(139.745974 0.480146268 0)
(139.690922 0.373442812 0)
(139.65598 0.271436171 0)
(139.640142 0.188541086 0)
(139.639972 0.138757217 0)
(139.649791 0.132948621 0)
(139.662302 0.176010537 0)
(139.669567 0.264966047 0)
(139.664333 0.388932152 0)
(139.641453 0.531205216 0)
(139.598852 0.673016475 0)
(139.537692 0.797919148 0)
(139.461727 0.895444779 0)
(139.376067 0.96285332 0)
(139.285759 1.00448553 0)
(139.194621 1.02912914 0)
(139.104659 1.04653099 0)
(139.016123 1.06439303 0)
(138.92806 1.08680416 0)
(138.839032 1.11431586 0)
(138.747728 1.14516803 0)
(138.653279 1.17684025 0)
(138.555301 1.20722137 0)
(138.453747 1.23508847 0)
(138.34873 1.259993 0)
(138.240395 1.28186943 0)
(138.128876 1.3006696 0)
(138.014316 1.31617726 0)
(137.896901 1.32800044 0)
(137.776898 1.33565602 0)
(137.654656 1.33865979 0)
(137.530613 1.3365783 0)
(137.405275 1.32904158 0)
(137.279214 1.31573617 0)
(137.153054 1.29639646 0)
(137.027466 1.27080236 0)
(136.903161 1.23878239 0)
(136.780883 1.20021818 0)
(136.661403 1.15504726 0)
(136.54551 1.10326301 0)
(136.43401 1.0449122 0)
(136.327717 0.98009107 0)
(136.227449 0.908940913 0)
(136.134021 0.831643964 0)
(136.048238 0.748420074 0)
(135.970893 0.659524348 0)
(135.902764 0.565246017 0)
(135.844606 0.465908222 0)
(135.79715 0.361866165 0)
(135.761091 0.253504189 0)
(135.737117 0.141214529 0)
(135.726085 0.0254878039 0)
(135.730463 -0.0927924165 0)
(135.749314 -0.213091433 0)
(135.782671 -0.334839381 0)
(135.830938 -0.457315936 0)
(135.894378 -0.57972508 0)
(135.97314 -0.701218399 0)
(136.06724 -0.82088669 0)
(136.176539 -0.937762671 0)
(136.300739 -1.0508396 0)
(136.439365 -1.15909248 0)
(136.591765 -1.26149984 0)
(136.757104 -1.35706812 0)
(136.934377 -1.44485741 0)
(137.122415 -1.52400656 0)
(137.319904 -1.59375726 0)
(137.525405 -1.65347611 0)
(137.73738 -1.70267361 0)
(137.954218 -1.74101894 0)
(138.174269 -1.76834934 0)
(138.395876 -1.78467348 0)
(138.617405 -1.79016872 0)
(138.837279 -1.7851725 0)
(139.054007 -1.77016871 0)
(139.266205 -1.74576992 0)
(139.472621 -1.7126967 0)
(139.672145 -1.67175499 0)
(139.863821 -1.62381264 0)
(140.046855 -1.56977621 0)
(140.220607 -1.51056869 0)
(140.384596 -1.44710906 0)
(140.538485 -1.38029402 0)
(140.682079 -1.31098247 0)
(140.815303 -1.23998255 0)
(140.938199 -1.16804155 0)
(141.050904 -1.09583851 0)
(141.153645 -1.02397945 0)
(141.246718 -0.95299529 0)
(141.330482 -0.883343328 0)
(141.405347 -0.81541183 0)
(141.471756 -0.749524954 0)
(141.53018 -0.685946776 0)
(141.581099 -0.624885119 0)
(141.625003 -0.566495903 0)
(141.662376 -0.510887998 0)
(141.693699 -0.458128454 0)
(141.719437 -0.408247786 0)
(141.740045 -0.361244231 0)
(141.755956 -0.31708826 0)
(141.767585 -0.27572741 0)
(141.775327 -0.237090746 0)
(141.779553 -0.201092667 0)
(141.780614 -0.167636099 0)
(141.778835 -0.136614919 0)
(141.774524 -0.107914285 0)
(141.767965 -0.081407571 0)
(141.759433 -0.0569585741 0)
(141.749217 -0.0344429009 0)
(141.737682 -0.0138151139 0)
(141.725143 0.00496472819 0)
(141.711629 0.0219484468 0)
(141.697145 0.0371543334 0)
(141.68178 0.0506845407 0)
(141.665655 0.062663182 0)
(141.648871 0.0732080856 0)
(141.631508 0.0824626948 0)
(141.613663 0.0905659161 0)
(141.595439 0.0976379626 0)
(141.576926 0.10378378 0)
(141.558199 0.10909433 0)
(141.539325 0.113649504 0)
(141.520369 0.117519941 0)
(141.501395 0.120766084 0)
(141.482469 0.123438357 0)
(141.46365 0.125579782 0)
(141.444988 0.127229097 0)
(141.426528 0.128422779 0)
(141.408308 0.129195851 0)
(141.390354 0.129582322 0)
(141.372691 0.129615268 0)
(141.355339 0.129326495 0)
(141.338314 0.12874613 0)
(141.32163 0.127902369 0)
(141.305299 0.126821318 0)
(141.289329 0.125526952 0)
(141.273731 0.124041159 0)
(141.258512 0.122383829 0)
(141.243678 0.120572964 0)
(141.229233 0.118624806 0)
(141.215184 0.116553986 0)
(141.201533 0.114373667 0)
(141.188283 0.112095686 0)
(141.175437 0.109730695 0)
(141.162995 0.107288298 0)
(141.150958 0.104777174 0)
(141.139326 0.102205194 0)
(141.1281 0.0995795037 0)
(141.117277 0.0969065912 0)
(141.106858 0.0941923187 0)
(141.09684 0.0914419312 0)
(141.087223 0.0886600527 0)
(141.078005 0.0858506768 0)
(141.069183 0.0830171309 0)
(141.060759 0.0801621019 0)
(141.052727 0.0772872904 0)
(141.045096 0.0743946477 0)
(141.03783 0.071480187 0)
(141.03105 0.0685633658 0)
(141.024334 0.065543596 0)
(141.019207 0.0629022846 0)
(141.007738 0.0582918091 0)
(141.492528 0.0828970488 0)
(141.469027 0.251423439 0)
(141.423658 0.408212361 0)
(141.354136 0.540619261 0)
(141.265836 0.638168656 0)
(141.165032 0.693574481 0)
(141.057837 0.704938727 0)
(140.950231 0.675649091 0)
(140.847898 0.6112024 0)
(140.755972 0.516663245 0)
(140.678889 0.397552982 0)
(140.620135 0.263073199 0)
(140.581609 0.128436999 0)
(140.562832 0.0139954351 0)
(140.562076 -0.0595603159 0)
(140.570477 -0.0780767451 0)
(140.579185 -0.036246713 0)
(140.581085 0.0604313142 0)
(140.569828 0.19714798 0)
(140.539574 0.353771701 0)
(140.4881 0.509443491 0)
(140.416174 0.64593037 0)
(140.327099 0.749682577 0)
(140.225913 0.812583692 0)
(140.118569 0.831595648 0)
(140.011268 0.807796936 0)
(139.90996 0.745390826 0)
(139.819982 0.651120518 0)
(139.74576 0.534233199 0)
(139.69045 0.406753789 0)
(139.655497 0.283496577 0)
(139.640176 0.181165144 0)
(139.641303 0.116188043 0)
(139.653242 0.101528728 0)
(139.668471 0.143366041 0)
(139.678813 0.238827571 0)
(139.676937 0.375721321 0)
(139.657617 0.534777231 0)
(139.618583 0.693988917 0)
(139.560739 0.833819469 0)
(139.487627 0.941642913 0)
(139.404252 1.0139785 0)
(139.315671 1.0558578 0)
(139.225792 1.07775504 0)
(139.136727 1.09141431 0)
(139.048807 1.1061958 0)
(138.961106 1.12712427 0)
(138.872162 1.15492903 0)
(138.78061 1.18750241 0)
(138.685522 1.22178173 0)
(138.586459 1.25518592 0)
(138.483334 1.28621583 0)
(138.376233 1.31432642 0)
(138.265286 1.33945129 0)
(138.150617 1.36155207 0)
(138.032368 1.38038623 0)
(137.910732 1.39549384 0)
(137.78599 1.40629959 0)
(137.658519 1.41222349 0)
(137.52879 1.41274546 0)
(137.397355 1.40742162 0)
(137.264838 1.39587587 0)
(137.131926 1.37778877 0)
(136.999354 1.35289361 0)
(136.867906 1.32097872 0)
(136.7384 1.28189128 0)
(136.611676 1.23553947 0)
(136.488589 1.18189209 0)
(136.369996 1.12097655 0)
(136.256749 1.05287615 0)
(136.149694 0.977727001 0)
(136.049668 0.89571447 0)
(135.957502 0.807069221 0)
(135.87402 0.712063374 0)
(135.800039 0.611007775 0)
(135.736363 0.504250822 0)
(135.683783 0.39218167 0)
(135.643072 0.275240631 0)
(135.614972 0.153927307 0)
(135.600115 0.0287715126 0)
(135.60127 -0.0997865018 0)
(135.617783 -0.231079808 0)
(135.649609 -0.364400736 0)
(135.697203 -0.498975882 0)
(135.760917 -0.633929552 0)
(135.840979 -0.768294176 0)
(135.937472 -0.901020925 0)
(136.05031 -1.03098936 0)
(136.179232 -1.15702312 0)
(136.323779 -1.27791051 0)
(136.483292 -1.39242973 0)
(136.656902 -1.49937919 0)
(136.843537 -1.59761165 0)
(137.041928 -1.68606944 0)
(137.250625 -1.76381866 0)
(137.468025 -1.83007958 0)
(137.692403 -1.88425158 0)
(137.921942 -1.92593127 0)
(138.15478 -1.9549232 0)
(138.389048 -1.97124285 0)
(138.622906 -1.97511217 0)
(138.85459 -1.96694815 0)
(139.082438 -1.94734501 0)
(139.304926 -1.91705136 0)
(139.520683 -1.87694356 0)
(139.728516 -1.82799685 0)
(139.927412 -1.77125558 0)
(140.116548 -1.7078041 0)
(140.295288 -1.63873919 0)
(140.463172 -1.56514515 0)
(140.619909 -1.48807204 0)
(140.765364 -1.4085175 0)
(140.899539 -1.3274123 0)
(141.022558 -1.24560946 0)
(141.134652 -1.16387706 0)
(141.236138 -1.08289415 0)
(141.327405 -1.00324993 0)
(141.408903 -0.925445854 0)
(141.481123 -0.849900279 0)
(141.544585 -0.776954116 0)
(141.599831 -0.706876756 0)
(141.647406 -0.639872063 0)
(141.687855 -0.576084611 0)
(141.721714 -0.51560606 0)
(141.749505 -0.458481486 0)
(141.771733 -0.404715445 0)
(141.788879 -0.3542776 0)
(141.801405 -0.307108251 0)
(141.809748 -0.263123899 0)
(141.814321 -0.222222746 0)
(141.815518 -0.184289912 0)
(141.813706 -0.149202061 0)
(141.809227 -0.116831414 0)
(141.802406 -0.0870496283 0)
(141.793541 -0.0597323673 0)
(141.782889 -0.0347566854 0)
(141.770588 -0.0119716044 0)
(141.756938 0.00884738208 0)
(141.742368 0.0276796614 0)
(141.726929 0.0446478505 0)
(141.710703 0.0598223471 0)
(141.693761 0.0733241007 0)
(141.67618 0.085274425 0)
(141.658047 0.0957841103 0)
(141.639444 0.104972626 0)
(141.620453 0.112956767 0)
(141.601158 0.119842296 0)
(141.581647 0.125724584 0)
(141.562012 0.130691231 0)
(141.542338 0.134825415 0)
(141.522697 0.138206675 0)
(141.503144 0.140909346 0)
(141.483725 0.143001236 0)
(141.464478 0.144543031 0)
(141.445439 0.14558817 0)
(141.426636 0.146183371 0)
(141.408097 0.146369855 0)
(141.389845 0.14618471 0)
(141.371903 0.145661824 0)
(141.354289 0.144832378 0)
(141.33702 0.143725154 0)
(141.320108 0.142366813 0)
(141.303569 0.140782066 0)
(141.287411 0.138993755 0)
(141.271644 0.137022857 0)
(141.256276 0.134888514 0)
(141.241312 0.132608102 0)
(141.226757 0.130197345 0)
(141.212614 0.127670462 0)
(141.198886 0.125040316 0)
(141.185571 0.122318566 0)
(141.172672 0.119515811 0)
(141.160186 0.116641708 0)
(141.148112 0.113705059 0)
(141.13645 0.110713872 0)
(141.125196 0.107675398 0)
(141.114348 0.104596149 0)
(141.103906 0.101481912 0)
(141.093867 0.0983377701 0)
(141.08423 0.0951681121 0)
(141.074992 0.0919766431 0)
(141.066152 0.0887663679 0)
(141.057709 0.0855396458 0)
(141.049658 0.0822979043 0)
(141.042008 0.0790429039 0)
(141.034722 0.0757706446 0)
(141.027919 0.0725016086 0)
(141.021192 0.0691298512 0)
(141.016044 0.0661769729 0)
(141.004726 0.0610733208 0)
(141.49266 0.0964168115 0)
(141.469328 0.292945057 0)
(141.423926 0.476523661 0)
(141.353933 0.632275855 0)
(141.264501 0.747664345 0)
(141.161872 0.813821011 0)
(141.052348 0.828207263 0)
(140.942218 0.794552413 0)
(140.837481 0.719166922 0)
(140.743573 0.607975992 0)
(140.665253 0.467510424 0)
(140.606303 0.308695453 0)
(140.568892 0.149491756 0)
(140.552692 0.0135225459 0)
(140.55496 -0.0753039728 0)
(140.566358 -0.0991540156 0)
(140.578461 -0.0516471813 0)
(140.583667 0.0607769686 0)
(140.575084 0.220910268 0)
(140.546308 0.405180962 0)
(140.495117 0.588833 0)
(140.422383 0.750153146 0)
(140.331577 0.873018744 0)
(140.227981 0.947754492 0)
(140.117887 0.970683239 0)
(140.007896 0.942985058 0)
(139.904368 0.869524651 0)
(139.813011 0.758156211 0)
(139.738522 0.619679485 0)
(139.684196 0.468169496 0)
(139.651475 0.321003131 0)
(139.639492 0.197809317 0)
(139.644793 0.117934033 0)
(139.661518 0.096729223 0)
(139.682082 0.141654615 0)
(139.698148 0.249541293 0)
(139.701936 0.406297088 0)
(139.687746 0.58949612 0)
(139.653011 0.773408436 0)
(139.59853 0.935085427 0)
(139.527877 1.05958827 0)
(139.446182 1.1426581 0)
(139.358679 1.19003843 0)
(139.269453 1.21392914 0)
(139.18076 1.22811428 0)
(139.093017 1.24366063 0)
(139.00531 1.26658675 0)
(138.916139 1.29786312 0)
(138.824055 1.33509117 0)
(138.728033 1.37470248 0)
(138.627544 1.41365561 0)
(138.522426 1.45016042 0)
(138.412712 1.48354533 0)
(138.298492 1.51370805 0)
(138.179871 1.54058719 0)
(138.056978 1.56388563 0)
(137.930011 1.58305074 0)
(137.799265 1.59739193 0)
(137.665146 1.60621042 0)
(137.528167 1.608876 0)
(137.388931 1.60484745 0)
(137.248123 1.59366348 0)
(137.106494 1.57493044 0)
(136.96485 1.5483185 0)
(136.824043 1.51356533 0)
(136.684956 1.47048159 0)
(136.5485 1.41895388 0)
(136.415601 1.3589436 0)
(136.287196 1.29048238 0)
(136.164222 1.21366546 0)
(136.047615 1.12864437 0)
(135.938299 1.03561985 0)
(135.837178 0.934835888 0)
(135.745136 0.826575581 0)
(135.663039 0.711159214 0)
(135.591733 0.588944615 0)
(135.532058 0.460330344 0)
(135.48484 0.325757897 0)
(135.45088 0.185717461 0)
(135.430996 0.0407731873 0)
(135.428201 -0.108375079 0)
(135.441855 -0.260999664 0)
(135.471781 -0.416268516 0)
(135.518558 -0.573257018 0)
(135.582667 -0.730928759 0)
(135.664457 -0.888134349 0)
(135.76412 -1.04361839 0)
(135.881661 -1.19602944 0)
(136.016879 -1.34394029 0)
(136.169338 -1.48587669 0)
(136.338361 -1.6203515 0)
(136.523015 -1.74590275 0)
(136.722118 -1.86113469 0)
(136.934251 -1.96475966 0)
(137.157775 -2.05563906 0)
(137.390866 -2.13282118 0)
(137.63155 -2.19557335 0)
(137.877747 -2.24340647 0)
(138.12732 -2.27608993 0)
(138.378127 -2.29365615 0)
(138.628071 -2.2963947 0)
(138.875144 -2.28483683 0)
(139.117472 -2.25973166 0)
(139.353348 -2.2220159 0)
(139.58126 -2.17277902 0)
(139.799909 -2.11322597 0)
(140.008216 -2.04463925 0)
(140.20533 -1.96834224 0)
(140.390618 -1.88566506 0)
(140.563654 -1.79791413 0)
(140.724208 -1.70634616 0)
(140.872225 -1.61214693 0)
(141.007802 -1.51641496 0)
(141.131172 -1.42014982 0)
(141.242677 -1.32424497 0)
(141.342753 -1.22948449 0)
(141.431902 -1.13654333 0)
(141.510684 -1.04599056 0)
(141.579696 -0.958294935 0)
(141.639555 -0.873831864 0)
(141.69089 -0.792891192 0)
(141.734328 -0.715685276 0)
(141.770487 -0.642357261 0)
(141.799968 -0.572989378 0)