/*--------------------------------*- C++ -*----------------------------------*\
| =========                 |                                                 |
| \\      /  F ield         | OpenFOAM: The Open Source CFD Toolbox           |
|  \\    /   O peration     | Version:  v2012                                 |
|   \\  /    A nd           | Website:  www.openfoam.com                      |
|    \\/     M anipulation  |                                                 |
\*---------------------------------------------------------------------------*/
FoamFile
{
    version     2.0;
    format      ascii;
    class       volVectorField;
    location    "2.34";
    object      HbyA;
}
// * * * * * * * * * * * * * * * * * * * * * * * * * * * * * * * * * * * * * //

dimensions      [0 1 -1 0 0 0 0];


internalField   nonuniform List<vector> 
28416
(
(0.0999976493 1.52501266e-05 0)
(0.0999794167 4.70551645e-05 0)
(0.0999442411 7.74810132e-05 0)
(0.0998945044 0.000103432057 0)
(0.0998344671 0.000122008072 0)
(0.0997681482 0.00013120064 0)
(0.0996992064 0.000130495438 0)
(0.0996311239 0.000120780124 0)
(0.09956709 0.000103519374 0)
(0.0995099139 8.00930362e-05 0)
(0.0994621025 5.19665899e-05 0)
(0.0994260413 2.13666434e-05 0)
(0.0994027835 -8.67289585e-06 0)
(0.0993879404 -3.4799633e-05 0)
(0.0993769829 -4.93100792e-05 0)
(0.0993689442 -4.72394846e-05 0)
(0.0993616004 -2.81902306e-05 0)
(0.0993525411 4.49198777e-06 0)
(0.0993364031 4.44068609e-05 0)
(0.0993071889 8.76109031e-05 0)
(0.0992647464 0.000130554846 0)
(0.0992120038 0.000168949481 0)
(0.0991517973 0.00019903735 0)
(0.0990867999 0.000218458918 0)
(0.0990199886 0.00022621161 0)
(0.0989543829 0.00022246128 0)
(0.0988927079 0.000208434081 0)
(0.0988373055 0.000186295767 0)
(0.0987900594 0.000159027765 0)
(0.0987522026 0.000130320013 0)
(0.0987240611 0.000104401616 0)
(0.0987048196 8.56962686e-05 0)
(0.0986924323 7.8254333e-05 0)
(0.0986838576 8.50166239e-05 0)
(0.0986753848 0.000107032212 0)
(0.0986631493 0.000143062174 0)
(0.098643906 0.000189639013 0)
(0.09861565 0.000241705205 0)
(0.0985779141 0.000293699958 0)
(0.0985316707 0.000340799644 0)
(0.0984789149 0.000379921996 0)
(0.0984220535 0.000410175829 0)
(0.0983632789 0.00043264619 0)
(0.0983041172 0.000449650095 0)
(0.0982452585 0.000463781965 0)
(0.0981866659 0.000477107888 0)
(0.0981278582 0.000490751136 0)
(0.0980682295 0.000504911299 0)
(0.0980072846 0.000519179791 0)
(0.0979447423 0.000532935925 0)
(0.0978805217 0.000545644036 0)
(0.097814668 0.000556976061 0)
(0.0977472757 0.000566786476 0)
(0.0976784425 0.000575019137 0)
(0.0976082601 0.000581620904 0)
(0.0975368272 0.000586499296 0)
(0.0974642675 0.000589522842 0)
(0.0973907428 0.000590542933 0)
(0.0973164566 0.000589416276 0)
(0.0972416527 0.000586017688 0)
(0.097166611 0.000580243272 0)
(0.0970916443 0.00057200868 0)
(0.0970170949 0.000561246851 0)
(0.0969433319 0.000547907225 0)
(0.0968707481 0.000531956217 0)
(0.0967997557 0.000513378323 0)
(0.096730782 0.000492177474 0)
(0.0966642646 0.000468378707 0)
(0.0966006486 0.000442030154 0)
(0.0965403837 0.000413205025 0)
(0.0964839242 0.000382002875 0)
(0.0964317295 0.000348549381 0)
(0.0963842651 0.000312994072 0)
(0.0963420038 0.000275506181 0)
(0.0963054247 0.000236266565 0)
(0.0962750243 0.000195461608 0)
(0.0962513115 0.000153248548 0)
(0.0962347281 0.000109736334 0)
(0.0962254905 6.50372522e-05 0)
(0.0962233398 1.94418302e-05 0)
(0.096228953 -2.61100681e-05 0)
(0.0962436518 -7.17443759e-05 0)
(0.0962675254 -0.000117677039 0)
(0.0963003083 -0.000163676951 0)
(0.0963420589 -0.000209448369 0)
(0.0963928143 -0.000254722023 0)
(0.0964524701 -0.000299208673 0)
(0.0965208469 -0.000342600178 0)
(0.0965976957 -0.000384580415 0)
(0.0966826781 -0.000424824511 0)
(0.0967753683 -0.000462999453 0)
(0.0968752632 -0.000498771021 0)
(0.0969817902 -0.000531814637 0)
(0.0970943141 -0.000561828184 0)
(0.097212145 -0.000588544866 0)
(0.0973345458 -0.000611743784 0)
(0.0974607397 -0.000631256864 0)
(0.0975899191 -0.000646972087 0)
(0.0977212562 -0.000658833873 0)
(0.0978539151 -0.00066684169 0)
(0.0979870649 -0.000671047693 0)
(0.0981198932 -0.000671553685 0)
(0.0982516182 -0.000668507387 0)
(0.0983814999 -0.000662097906 0)
(0.0985088498 -0.000652550331 0)
(0.0986330383 -0.000640119591 0)
(0.0987535006 -0.000625083774 0)
(0.0988697403 -0.000607737221 0)
(0.098981332 -0.000588383673 0)
(0.0990879213 -0.000567329746 0)
(0.0991892242 -0.000544878959 0)
(0.0992850238 -0.000521326461 0)
(0.0993751673 -0.000496954506 0)
(0.0994595591 -0.000472028519 0)
(0.0995381547 -0.000446793274 0)
(0.0996109465 -0.000421468527 0)
(0.099677973 -0.000396239108 0)
(0.0997393484 -0.000371258678 0)
(0.0997952518 -0.000346666021 0)
(0.0998458896 -0.000322587023 0)
(0.0998914813 -0.000299131766 0)
(0.0999322573 -0.000276393274 0)
(0.0999684567 -0.000254447667 0)
(0.100000322 -0.000233354452 0)
(0.100028096 -0.000213155829 0)
(0.100052019 -0.000193873249 0)
(0.100072338 -0.000175512547 0)
(0.100089303 -0.000158069771 0)
(0.100103162 -0.000141534212 0)
(0.100114158 -0.000125890007 0)
(0.100122527 -0.00011111729 0)
(0.100128496 -9.71929553e-05 0)
(0.100132282 -8.40907556e-05 0)
(0.100134091 -7.17796142e-05 0)
(0.100134115 -6.0218721e-05 0)
(0.10013254 -4.93544527e-05 0)
(0.100129557 -3.91219518e-05 0)
(0.100125386 -2.94596397e-05 0)
(0.100120303 -2.03494278e-05 0)
(0.100114621 -1.18920901e-05 0)
(0.100108602 -4.34241882e-06 0)
(0.100102119 2.06785465e-06 0)
(0.100094711 7.46573438e-06 0)
(0.100086183 1.21413208e-05 0)
(0.100076723 1.62871396e-05 0)
(0.100066569 1.99996833e-05 0)
(0.100055872 2.33409677e-05 0)
(0.100044748 2.63603641e-05 0)
(0.100033299 2.90942031e-05 0)
(0.100021611 3.1568651e-05 0)
(0.100009761 3.38020569e-05 0)
(0.0999978179 3.58051013e-05 0)
(0.099985839 3.75832664e-05 0)
(0.0999738693 3.9140728e-05 0)
(0.099961943 4.0483005e-05 0)
(0.0999500868 4.16180121e-05 0)
(0.0999383231 4.25561704e-05 0)
(0.099926671 4.33100257e-05 0)
(0.0999151475 4.38935903e-05 0)
(0.0999037683 4.43215812e-05 0)
(0.0998925485 4.46087052e-05 0)
(0.0998815027 4.47690665e-05 0)
(0.0998706447 4.48157114e-05 0)
(0.0998599876 4.47603201e-05 0)
(0.0998495433 4.46130684e-05 0)
(0.0998393229 4.43826497e-05 0)
(0.0998293358 4.40764063e-05 0)
(0.09981959 4.37005256e-05 0)
(0.0998100922 4.32602772e-05 0)
(0.0998008477 4.27602665e-05 0)
(0.0997918605 4.22046771e-05 0)
(0.0997831333 4.15974759e-05 0)
(0.0997746683 4.09425638e-05 0)
(0.0997664666 4.02438646e-05 0)
(0.0997585291 3.95053531e-05 0)
(0.0997508561 3.87310332e-05 0)
(0.0997434482 3.79248791e-05 0)
(0.0997363057 3.70907517e-05 0)
(0.0997294289 3.6232306e-05 0)
(0.0997228184 3.53529084e-05 0)
(0.0997164751 3.44555838e-05 0)
(0.0997103995 3.35429787e-05 0)
(0.0997045935 3.26173756e-05 0)
(0.0996990565 3.16805164e-05 0)
(0.0996937971 3.07342016e-05 0)
(0.0996887947 2.97771931e-05 0)
(0.0996841364 2.88181186e-05 0)
(0.0996795502 2.78139274e-05 0)
(0.0996760713 2.69453223e-05 0)
(0.0996704584 2.53230996e-05 0)
(0.0999984025 3.17139353e-05 0)
(0.0999836073 9.61838081e-05 0)
(0.0999513041 0.000156046513 0)
(0.0999021933 0.000206229542 0)
(0.0998405985 0.000242337506 0)
(0.0997711973 0.000261372583 0)
(0.0996982412 0.000262729465 0)
(0.0996257284 0.000248044138 0)
(0.0995573653 0.000219789838 0)
(0.0994964537 0.000180200092 0)
(0.0994458387 0.000131636657 0)
(0.0994075675 7.78686191e-05 0)
(0.0993815905 2.46672426e-05 0)
(0.0993680602 -2.00005365e-05 0)
(0.0993661003 -4.60669451e-05 0)
(0.0993704613 -4.7641549e-05 0)
(0.0993744165 -2.33537712e-05 0)
(0.0993720259 2.34722284e-05 0)
(0.0993595921 8.47320547e-05 0)
(0.0993346554 0.00015237843 0)
(0.0992953793 0.000218926241 0)
(0.0992423944 0.00027729595 0)
(0.0991785221 0.000321923023 0)
(0.0991075106 0.000349536848 0)
(0.0990334088 0.000358979139 0)
(0.0989602448 0.00035075748 0)
(0.0988917219 0.000326739935 0)
(0.0988310279 0.000289985567 0)
(0.0987807061 0.000244700553 0)
(0.0987424636 0.000196263333 0)
(0.0987168971 0.00015111936 0)
(0.0987032153 0.000116309028 0)
(0.0986990903 9.85172984e-05 0)
(0.0987007582 0.000102745221 0)
(0.0987033979 0.000130911584 0)
(0.0987018327 0.000181115526 0)
(0.0986914858 0.00024776757 0)
(0.0986692938 0.000322689412 0)
(0.0986342664 0.000396936109 0)
(0.0985875168 0.000462846882 0)
(0.0985317697 0.000515678313 0)
(0.0984705036 0.000554301628 0)
(0.0984070039 0.000580798127 0)
(0.0983436258 0.00059919228 0)
(0.0982814688 0.000613858373 0)
(0.0982204903 0.000628195725 0)
(0.098159923 0.000643971203 0)
(0.0980987742 0.000661391431 0)
(0.098036215 0.000679665674 0)
(0.0979717591 0.000697690078 0)
(0.0979052503 0.000714549368 0)
(0.0978367415 0.000729712536 0)
(0.0977663644 0.000742974828 0)
(0.0976942479 0.000754286715 0)
(0.097620497 0.000763599647 0)
(0.0975452115 0.000770791498 0)
(0.0974685157 0.000775667459 0)
(0.0973905793 0.000777998294 0)
(0.0973116236 0.000777559171 0)
(0.0972319186 0.000774151379 0)
(0.097151776 0.00076760734 0)
(0.0970715428 0.000757787479 0)
(0.0969915976 0.000744576662 0)
(0.0969123469 0.000727883491 0)
(0.0968342221 0.000707641914 0)
(0.0967576754 0.000683813444 0)
(0.0966831764 0.000656388726 0)
(0.0966112073 0.000625388062 0)
(0.0965422603 0.000590861025 0)
(0.096476834 0.000552885374 0)
(0.0964154312 0.000511565487 0)
(0.0963585567 0.000467030462 0)
(0.0963067149 0.000419431708 0)
(0.0962604065 0.000368940415 0)
(0.0962201261 0.000315743866 0)
(0.096186344 0.000260041884 0)
(0.0961594834 0.000202029891 0)
(0.0961399378 0.000141896618 0)
(0.096128156 7.98956589e-05 0)
(0.0961249189 1.64357566e-05 0)
(0.096130536 -4.78888235e-05 0)
(0.0961449838 -0.000112796419 0)
(0.0961686834 -0.000178169565 0)
(0.0962018893 -0.000243651949 0)
(0.0962446705 -0.00030883081 0)
(0.0962970503 -0.000373301544 0)
(0.0963589708 -0.00043662404 0)
(0.0964302806 -0.000498324634 0)
(0.0965107375 -0.000557914846 0)
(0.0966000026 -0.000614900049 0)
(0.0966976394 -0.000668788015 0)
(0.0968031192 -0.000719101157 0)
(0.0969158272 -0.000765389128 0)
(0.0970350692 -0.000807240642 0)
(0.0971600798 -0.000844294614 0)
(0.0972900322 -0.000876250097 0)
(0.0974240491 -0.00090287453 0)
(0.0975612157 -0.000924009985 0)
(0.0977005941 -0.000939577083 0)
(0.0978412392 -0.000949576386 0)
(0.0979822148 -0.000954087208 0)
(0.0981226097 -0.000953263973 0)
(0.0982615521 -0.000947330415 0)
(0.0983982227 -0.000936572026 0)
(0.0985318662 -0.000921327138 0)
(0.0986617992 -0.000901977105 0)
(0.0987874168 -0.000878935978 0)
(0.0989081965 -0.000852640074 0)
(0.0990237 -0.000823537834 0)
(0.0991335724 -0.000792080252 0)
(0.0992375401 -0.000758712135 0)
(0.099335407 -0.00072386437 0)
(0.0994270494 -0.000687947217 0)
(0.0995124093 -0.000651344436 0)
(0.0995914883 -0.000614407715 0)
(0.0996643412 -0.000577450838 0)
(0.0997310753 -0.000540738945 0)
(0.0997918509 -0.000504494714 0)
(0.0998468726 -0.000468918277 0)
(0.0998963739 -0.000434189483 0)
(0.0999406072 -0.000400463873 0)
(0.0999798378 -0.000367870904 0)
(0.10001434 -0.000336514234 0)
(0.100044393 -0.000306472445 0)
(0.100070279 -0.000277799314 0)
(0.100092282 -0.000250522882 0)
(0.100110674 -0.000224650445 0)
(0.100125723 -0.000200174221 0)
(0.100137691 -0.000177074905 0)
(0.100146831 -0.000155323755 0)
(0.100153387 -0.000134884085 0)
(0.100157594 -0.000115712527 0)
(0.100159678 -9.77603945e-05 0)
(0.100159863 -8.09758026e-05 0)
(0.100158365 -6.53067865e-05 0)
(0.100155398 -5.07014305e-05 0)
(0.100151159 -3.71111378e-05 0)
(0.100145814 -2.45003945e-05 0)
(0.100139451 -1.28636899e-05 0)
(0.10013207 -2.19437683e-06 0)
(0.100123784 7.44026657e-06 0)
(0.100114907 1.58484684e-05 0)
(0.100105579 2.30386046e-05 0)
(0.100095679 2.92569959e-05 0)
(0.100085175 3.4719162e-05 0)
(0.100074154 3.95415154e-05 0)
(0.100062712 4.37989038e-05 0)
(0.100050936 4.75513475e-05 0)
(0.100038904 5.08469373e-05 0)
(0.100026681 5.37283015e-05 0)
(0.100014327 5.6234819e-05 0)
(0.100001898 5.83999842e-05 0)
(0.0999894434 6.02509224e-05 0)
(0.0999770075 6.18103045e-05 0)
(0.099964628 6.30980883e-05 0)
(0.0999523372 6.413244e-05 0)
(0.0999401626 6.49303477e-05 0)
(0.0999281275 6.55082081e-05 0)
(0.0999162512 6.58822233e-05 0)
(0.0999045506 6.60684529e-05 0)
(0.0998930402 6.60826293e-05 0)
(0.0998817328 6.59399315e-05 0)
(0.0998706396 6.56547959e-05 0)
(0.0998597708 6.52407443e-05 0)
(0.0998491354 6.47102451e-05 0)
(0.0998387414 6.40746452e-05 0)
(0.0998285958 6.33441777e-05 0)
(0.0998187046 6.25280246e-05 0)
(0.0998090729 6.16344128e-05 0)
(0.0997997046 6.06707308e-05 0)
(0.0997906029 5.96436507e-05 0)
(0.0997817703 5.85592462e-05 0)
(0.0997732084 5.74230961e-05 0)
(0.0997649184 5.62403684e-05 0)
(0.099756901 5.50158805e-05 0)
(0.0997491565 5.37541356e-05 0)
(0.0997416852 5.24593378e-05 0)
(0.0997344871 5.11353929e-05 0)
(0.099727562 4.97858962e-05 0)
(0.0997209099 4.84141078e-05 0)
(0.0997145308 4.70229244e-05 0)
(0.0997084247 4.56148346e-05 0)
(0.0997025924 4.4191913e-05 0)
(0.0996970322 4.27555569e-05 0)
(0.0996917521 4.13071569e-05 0)
(0.0996867284 3.98442064e-05 0)
(0.0996820479 3.83767143e-05 0)
(0.0996774202 3.68470582e-05 0)
(0.0996739018 3.55071048e-05 0)
(0.0996680676 3.31113069e-05 0)
(0.0999980105 3.8645126e-05 0)
(0.099981674 0.000116644597 0)
(0.0999483762 0.000188544361 0)
(0.0998992453 0.000248737888 0)
(0.0998382694 0.000292455474 0)
(0.0997697678 0.000316306765 0)
(0.0996977673 0.000319526297 0)
(0.0996260986 0.000303910811 0)
(0.0995583223 0.000272201123 0)
(0.0994976057 0.000226836452 0)
(0.0994466925 0.000170425374 0)
(0.0994077722 0.000107363687 0)
(0.0993822422 4.50268065e-05 0)
(0.0993689907 -6.27797576e-06 0)
(0.0993641265 -3.76714783e-05 0)
(0.0993639287 -4.26487984e-05 0)
(0.0993647611 -1.89826557e-05 0)
(0.0993616804 3.05519723e-05 0)
(0.0993493378 9.90224586e-05 0)
(0.0993241015 0.00017638385 0)
(0.099285165 0.000252483539 0)
(0.0992336816 0.000318858508 0)
(0.0991720758 0.000369264844 0)
(0.0991035864 0.000399930605 0)
(0.0990318898 0.000409479649 0)
(0.0989607574 0.000398525265 0)
(0.098893751 0.00036923218 0)
(0.0988340131 0.00032505125 0)
(0.0987841058 0.00027066996 0)
(0.0987458021 0.000212079571 0)
(0.098719809 0.000156511103 0)
(0.0987054849 0.000111948374 0)
(0.0987006587 8.60681251e-05 0)
(0.0987016878 8.47450666e-05 0)
(0.0987038811 0.000110553829 0)
(0.0987022679 0.00016180096 0)
(0.0986924863 0.000232470715 0)
(0.0986715583 0.000313315504 0)
(0.0986383853 0.000393912183 0)
(0.0985938173 0.00046510257 0)
(0.0985402508 0.000521042736 0)
(0.0984808699 0.000560191537 0)
(0.0984187748 0.000584954842 0)
(0.0983562723 0.000600213909 0)
(0.0982945293 0.00061137573 0)
(0.0982336329 0.000622698432 0)
(0.0981729473 0.000636424305 0)
(0.0981115708 0.00065283198 0)
(0.0980487092 0.000670926729 0)
(0.0979838638 0.000689305728 0)
(0.0979168399 0.000706804819 0)
(0.0978476494 0.000722757855 0)
(0.0977763933 0.000736927027 0)
(0.0977031843 0.000749281937 0)
(0.0976281232 0.000759796386 0)
(0.0975513131 0.000768347467 0)
(0.0974728847 0.000774713867 0)
(0.0973930162 0.000778624575 0)
(0.0973119398 0.000779809551 0)
(0.0972299394 0.000778028397 0)
(0.0971473439 0.000773077007 0)
(0.0970645212 0.000764783278 0)
(0.0969818737 0.000753001992 0)
(0.0968998343 0.000737613121 0)
(0.0968188619 0.000718523132 0)
(0.0967394372 0.000695667197 0)
(0.0966620573 0.000669010857 0)
(0.0965872299 0.000638550831 0)
(0.0965154693 0.000604315309 0)
(0.0964472927 0.000566363882 0)
(0.0963832181 0.000524787044 0)
(0.0963237635 0.000479704925 0)
(0.0962694466 0.000431264974 0)
(0.0962207835 0.000379638939 0)
(0.0961782864 0.000325020652 0)
(0.0961424609 0.000267622465 0)
(0.0961138054 0.000207688652 0)
(0.0960928276 0.000145507371 0)
(0.0960799705 8.14012869e-05 0)
(0.0960752958 1.56697689e-05 0)
(0.0960792733 -5.15580025e-05 0)
(0.0960926859 -0.000119900011 0)
(0.0961157576 -0.000188975162 0)
(0.0961486091 -0.000258426408 0)
(0.0961913813 -0.00032782678 0)
(0.0962441492 -0.000396704515 0)
(0.0963068837 -0.000464556772 0)
(0.0963794559 -0.000530851108 0)
(0.0964616404 -0.000595033948 0)
(0.0965531092 -0.000656539436 0)
(0.0966534279 -0.00071479886 0)
(0.0967620582 -0.000769253433 0)
(0.0968783617 -0.000819369511 0)
(0.0970016057 -0.000864654804 0)
(0.0971309723 -0.000904674385 0)
(0.0972655697 -0.000939064934 0)
(0.0974044463 -0.000967545959 0)
(0.0975466071 -0.000989927435 0)
(0.0976910315 -0.00100611381 0)
(0.0978366923 -0.00101610471 0)
(0.0979825741 -0.00101999271 0)
(0.0981276917 -0.00101795846 0)
(0.0982711068 -0.00101026354 0)
(0.0984119424 -0.000997241158 0)
(0.0985493953 -0.000979285374 0)
(0.0986827453 -0.000956839045 0)
(0.0988113616 -0.000930381249 0)
(0.0989347072 -0.000900414619 0)
(0.0990523394 -0.000867453122 0)
(0.0991639088 -0.000832010663 0)
(0.099269156 -0.000794590808 0)
(0.0993679061 -0.000755677841 0)
(0.0994600631 -0.000715729195 0)
(0.0995456021 -0.000675169167 0)
(0.099624562 -0.000634383866 0)
(0.0996970384 -0.000593717439 0)
(0.0997631777 -0.000553469934 0)
(0.0998231721 -0.00051390007 0)
(0.0998772527 -0.000475230863 0)
(0.0999256793 -0.000437652041 0)
(0.0999687313 -0.000401320626 0)
(0.1000067 -0.000366362055 0)
(0.100039885 -0.000332872098 0)
(0.100068586 -0.000300919202 0)
(0.100093104 -0.000270547374 0)
(0.100113734 -0.000241780582 0)
(0.100130766 -0.000214623902 0)
(0.100144479 -0.000189065112 0)
(0.100155145 -0.000165077666 0)
(0.100163028 -0.000142623914 0)
(0.100168381 -0.000121658039 0)
(0.100171444 -0.000102128639 0)
(0.100172445 -8.39812441e-05 0)
(0.100171593 -6.71620215e-05 0)
(0.10016908 -5.16236661e-05 0)
(0.100165088 -3.73278358e-05 0)
(0.100159789 -2.4242952e-05 0)
(0.100153355 -1.23288729e-05 0)
(0.100146023 -1.47690923e-06 0)
(0.100138026 8.35246879e-06 0)
(0.100129395 1.73109812e-05 0)
(0.100120091 2.54569173e-05 0)
(0.100110156 3.27208198e-05 0)
(0.100099634 3.91145193e-05 0)
(0.100088563 4.47309288e-05 0)
(0.100077019 4.96593473e-05 0)
(0.100065088 5.39751694e-05 0)
(0.100052854 5.77445168e-05 0)
(0.1000404 6.10223355e-05 0)
(0.100027803 6.38528186e-05 0)
(0.100015128 6.62723027e-05 0)
(0.10000243 6.83122202e-05 0)
(0.0999897531 7.00008769e-05 0)
(0.0999771348 7.13645696e-05 0)
(0.0999646036 7.24285323e-05 0)
(0.0999521831 7.32173342e-05 0)
(0.0999398935 7.37546692e-05 0)
(0.0999277531 7.40629817e-05 0)
(0.0999157784 7.4163292e-05 0)
(0.0999039848 7.40752019e-05 0)
(0.0998923862 7.38169132e-05 0)
(0.0998809957 7.34051962e-05 0)
(0.0998698252 7.28553465e-05 0)
(0.0998588856 7.21811881e-05 0)
(0.0998481863 7.13951299e-05 0)
(0.0998377357 7.05082508e-05 0)
(0.0998275407 6.95304053e-05 0)
(0.0998176071 6.8470355e-05 0)
(0.0998079396 6.73359215e-05 0)
(0.0997985416 6.61341446e-05 0)
(0.0997894155 6.48714316e-05 0)
(0.099780563 6.35536879e-05 0)
(0.099771985 6.21864167e-05 0)
(0.0997636819 6.07747832e-05 0)
(0.0997556537 5.9323647e-05 0)
(0.0997479001 5.78375666e-05 0)
(0.0997404208 5.63207865e-05 0)
(0.0997332155 5.4777216e-05 0)
(0.0997262839 5.32104016e-05 0)
(0.0997196257 5.16234931e-05 0)
(0.0997132408 5.00192113e-05 0)
(0.099707129 4.83998037e-05 0)
(0.0997012909 4.67670428e-05 0)
(0.0996957244 4.51219941e-05 0)
(0.0996904367 4.34657081e-05 0)
(0.0996854039 4.17954627e-05 0)
(0.0996807106 4.01220533e-05 0)
(0.0996760736 3.8385027e-05 0)
(0.0996725416 3.68645483e-05 0)
(0.0996667887 3.41891497e-05 0)
(0.0999982334 4.90833065e-05 0)
(0.099982847 0.000148923716 0)
(0.0999502805 0.000241828612 0)
(0.099901075 0.000320146135 0)
(0.099839016 0.000377416081 0)
(0.0997685177 0.000409129356 0)
(0.0996938935 0.000414175952 0)
(0.0996193531 0.000394762426 0)
(0.0995488607 0.000354389217 0)
(0.0994859752 0.000296247494 0)
(0.0994337874 0.000223765062 0)
(0.0993946929 0.000142584776 0)
(0.0993697178 6.19241982e-05 0)
(0.0993582042 -6.38188766e-06 0)
(0.0993579716 -4.96712471e-05 0)
(0.099364511 -5.80251393e-05 0)
(0.0993715411 -2.86794136e-05 0)
(0.0993730266 3.39495673e-05 0)
(0.0993640176 0.000120191498 0)
(0.0993410423 0.000217990341 0)
(0.0993027244 0.000314817344 0)
(0.0992500052 0.000399607439 0)
(0.0991855693 0.000464138634 0)
(0.0991131671 0.000503526584 0)
(0.0990370701 0.000516007988 0)
(0.098961637 0.000502347541 0)
(0.0988909772 0.000465243416 0)
(0.0988287078 0.000408979422 0)
(0.0987777466 0.000339385566 0)
(0.0987400686 0.000263966823 0)
(0.0987164061 0.000191865778 0)
(0.0987059525 0.000133272047 0)
(0.098706209 9.80822229e-05 0)
(0.0987131295 9.39763271e-05 0)
(0.0987215795 0.000124414663 0)
(0.0987260332 0.000187292389 0)
(0.0987215007 0.000274916043 0)
(0.0987045057 0.000375478393 0)
(0.0986737342 0.000475713432 0)
(0.0986301187 0.000563997148 0)
(0.0985763584 0.000632931251 0)
(0.0985160444 0.000680579545 0)
(0.0984526715 0.000710010016 0)
(0.0983888444 0.000727433471 0)
(0.098325892 0.000739738654 0)
(0.0982639328 0.000752369168 0)
(0.0982022696 0.000768215111 0)
(0.0981398942 0.000787666401 0)
(0.098075902 0.000809479116 0)
(0.0980097056 0.000831871896 0)
(0.0979410509 0.000853352624 0)
(0.0978699146 0.000873056927 0)
(0.0977963788 0.000890667751 0)
(0.0977205449 0.000906138755 0)
(0.0976425073 0.000919435856 0)
(0.0975623664 0.000930406152 0)
(0.097480256 0.000938772531 0)
(0.0973963641 0.000944193422 0)
(0.0973109396 0.000946326451 0)
(0.0972242897 0.000944865097 0)
(0.097136772 0.000939547695 0)
(0.0970487873 0.000930152473 0)
(0.0969607737 0.000916491471 0)
(0.0968732014 0.000898408887 0)
(0.0967865684 0.000875783258 0)
(0.0967013954 0.000848530659 0)
(0.0966182208 0.00081660666 0)
(0.0965375972 0.000780006314 0)
(0.0964600871 0.000738762437 0)
(0.0963862589 0.000692942813 0)
(0.0963166831 0.000642647092 0)
(0.0962519281 0.000588003899 0)
(0.0961925558 0.000529168485 0)
(0.0961391187 0.000466321049 0)
(0.0960921575 0.000399665966 0)
(0.0960521993 0.000329431627 0)
(0.0960197522 0.000255869137 0)
(0.0959952996 0.000179250257 0)
(0.0959793187 9.98523811e-05 0)
(0.0959724045 1.80225181e-05 0)
(0.0959749852 -6.56135005e-05 0)
(0.0959873244 -0.000150675359 0)
(0.0960097914 -0.00023675966 0)
(0.0960426717 -0.000323356704 0)
(0.0960861554 -0.000409903302 0)
(0.0961403521 -0.000495799272 0)
(0.0962052775 -0.000580401513 0)
(0.0962808419 -0.000663025953 0)
(0.0963668423 -0.000742960716 0)
(0.0964629542 -0.000819481131 0)
(0.0965687273 -0.000891865143 0)
(0.0966835857 -0.000959410576 0)
(0.0968068324 -0.00102145329 0)
(0.0969376567 -0.00107738494 0)
(0.0970751451 -0.00112667001 0)
(0.0972182966 -0.00116886135 0)
(0.0973660393 -0.00120361361 0)
(0.0975172507 -0.00123069365 0)
(0.0976707791 -0.00124998712 0)
(0.0978254664 -0.00126150085 0)
(0.0979801709 -0.00126536085 0)
(0.0981337892 -0.00126180622 0)
(0.0982852759 -0.00125117948 0)
(0.0984336614 -0.00123391403 0)
(0.0985780656 -0.0012105195 0)
(0.0987177087 -0.00118156575 0)
(0.098851918 -0.0011476663 0)
(0.0989801314 -0.00110946194 0)
(0.0991018975 -0.00106760502 0)
(0.0992168732 -0.00102274494 0)
(0.0993248186 -0.000975515376 0)
(0.0994255897 -0.000926523167 0)
(0.0995191309 -0.000876339309 0)
(0.0996054651 -0.000825491761 0)
(0.0996846847 -0.000774460232 0)
(0.0997569425 -0.000723672837 0)
(0.0998224425 -0.000673504624 0)
(0.0998814325 -0.000624278612 0)
(0.0999341954 -0.000576269053 0)
(0.0999810396 -0.000529704913 0)
(0.100022291 -0.000484772705 0)
(0.100058284 -0.000441619206 0)
(0.100089359 -0.000400354531 0)
(0.100115854 -0.000361055557 0)
(0.100138103 -0.000323769617 0)
(0.100156433 -0.000288518236 0)
(0.100171159 -0.000255300141 0)
(0.100182586 -0.000224094442 0)
(0.100191003 -0.000194864049 0)
(0.100196685 -0.000167558823 0)
(0.100199894 -0.000142118264 0)
(0.100200875 -0.000118473769 0)
(0.100199855 -9.65503425e-05 0)
(0.10019705 -7.62668267e-05 0)
(0.10019266 -5.75337389e-05 0)
(0.100186877 -4.02548286e-05 0)
(0.100179904 -2.43421909e-05 0)
(0.100171995 -9.76372339e-06 0)
(0.100163237 3.50878634e-06 0)
(0.10015368 1.55119078e-05 0)
(0.100143459 2.62585634e-05 0)
(0.100132634 3.58209544e-05 0)
(0.100121291 4.42868009e-05 0)
(0.100109496 5.17393786e-05 0)
(0.100097307 5.82800665e-05 0)
(0.10008479 6.40070351e-05 0)
(0.100072015 6.90052431e-05 0)
(0.100059045 7.33488591e-05 0)
(0.100045933 7.71021678e-05 0)
(0.100032723 8.03216298e-05 0)
(0.10001946 8.30571679e-05 0)
(0.10000619 8.53514969e-05 0)
(0.0999929571 8.72402522e-05 0)
(0.0999798024 8.87538376e-05 0)
(0.0999667615 8.99196289e-05 0)
(0.099953865 9.07634037e-05 0)
(0.0999411377 9.13099138e-05 0)
(0.0999285999 9.15831926e-05 0)
(0.0999162678 9.16066162e-05 0)
(0.0999041547 9.14026611e-05 0)
(0.099892272 9.09926197e-05 0)
(0.0998806291 9.03964175e-05 0)
(0.099869234 8.96325053e-05 0)
(0.0998580935 8.87178259e-05 0)
(0.0998472133 8.76678481e-05 0)
(0.0998365987 8.64966295e-05 0)
(0.0998262539 8.52168923e-05 0)
(0.0998161826 8.38401157e-05 0)
(0.0998063878 8.23766396e-05 0)
(0.0997968719 8.08357667e-05 0)
(0.0997876367 7.9225863e-05 0)
(0.0997786837 7.75544568e-05 0)
(0.0997700137 7.58283356e-05 0)
(0.099761627 7.40536343e-05 0)
(0.0997535239 7.22359142e-05 0)
(0.0997457039 7.03802269e-05 0)
(0.0997381664 6.84911579e-05 0)
(0.0997309106 6.65728503e-05 0)
(0.0997239356 6.46290112e-05 0)
(0.0997172404 6.26629087e-05 0)
(0.0997108238 6.06773659e-05 0)
(0.0997046847 5.86747344e-05 0)
(0.0996988228 5.66569132e-05 0)
(0.099693235 5.46251049e-05 0)
(0.0996879276 5.25806885e-05 0)
(0.0996828748 5.05208462e-05 0)
(0.0996781625 4.84593308e-05 0)
(0.0996734924 4.63250485e-05 0)
(0.0996699393 4.44582482e-05 0)
(0.0996640172 4.12005465e-05 0)
(0.0999982026 5.85865275e-05 0)
(0.0999826474 0.000177692472 0)
(0.0999498214 0.000288500193 0)
(0.0999002932 0.000382075997 0)
(0.0998379047 0.000451017907 0)
(0.0997671016 0.000490177452 0)
(0.0996921642 0.000498213136 0)
(0.0996172407 0.000477518182 0)
(0.0995462576 0.000431975999 0)
(0.0994827635 0.000365164524 0)
(0.0994298149 0.000280984729 0)
(0.0993897797 0.000185939143 0)
(0.0993638717 9.07799932e-05 0)
(0.0993516085 9.89215262e-06 0)
(0.0993506464 -4.20978123e-05 0)
(0.0993564023 -5.5185304e-05 0)
(0.099362825 -2.56195524e-05 0)
(0.0993640382 4.27134235e-05 0)
(0.0993551636 0.000139344766 0)
(0.0993328715 0.000250044581 0)
(0.0992957649 0.000360070219 0)
(0.0992445153 0.000456536059 0)
(0.0991815316 0.000529866768 0)
(0.0991103916 0.000574326716 0)
(0.0990352758 0.000587768668 0)
(0.0989605065 0.000570954001 0)
(0.0988902063 0.000526852073 0)
(0.0988280535 0.000460227303 0)
(0.0987770708 0.000377614251 0)
(0.0987393755 0.000287511531 0)
(0.0987158678 0.000200390327 0)
(0.0987059205 0.000128058219 0)
(0.0987071883 8.21289605e-05 0)
(0.0987156407 7.17668509e-05 0)
(0.0987259753 0.000101339638 0)
(0.0987325011 0.000168816179 0)
(0.0987301868 0.000265577389 0)
(0.0987155228 0.00037800168 0)
(0.0986870839 0.000490534578 0)
(0.0986456472 0.000589368198 0)
(0.0985937795 0.000665579706 0)
(0.0985350034 0.000716709662 0)
(0.0984728152 0.000746314386 0)
(0.0984098686 0.000761796577 0)
(0.0983475533 0.000771456465 0)
(0.0982860318 0.000781909588 0)
(0.0982246183 0.000796707474 0)
(0.0981622872 0.000816365736 0)
(0.098098099 0.000839394844 0)
(0.0980314274 0.000863630214 0)
(0.0979619842 0.000887247603 0)
(0.0978897206 0.000909187444 0)
(0.0978147006 0.000929064498 0)
(0.0977370145 0.000946831804 0)
(0.0976567502 0.000962462221 0)
(0.0975740072 0.000975784291 0)
(0.0974889246 0.000986472857 0)
(0.0974017018 0.000994121195 0)
(0.0973126067 0.000998319249 0)
(0.0972219715 0.000998699248 0)
(0.0971301857 0.000994947272 0)
(0.0970376875 0.000986797258 0)
(0.0969449578 0.000974023177 0)
(0.0968525139 0.000956436245 0)
(0.0967609041 0.000933886538 0)
(0.0966707005 0.000906265745 0)
(0.0965824916 0.000873508646 0)
(0.0964968742 0.000835592868 0)
(0.0964144471 0.000792537488 0)
(0.0963358058 0.000744401093 0)
(0.0962615401 0.000691279609 0)
(0.0961922342 0.000633303831 0)
(0.0961284671 0.000570636602 0)
(0.096070813 0.000503470105 0)
(0.0960198408 0.000432023949 0)
(0.0959761108 0.000356544345 0)
(0.0959401729 0.000277306369 0)
(0.0959125643 0.000194621328 0)
(0.0958938027 0.000108842517 0)
(0.0958843233 2.03446511e-05 0)
(0.0958846139 -7.05597386e-05 0)
(0.0958952009 -0.000163396305 0)
(0.0959164764 -0.000257664101 0)
(0.0959487625 -0.000352815809 0)
(0.0959923115 -0.000448231821 0)
(0.0960472895 -0.000543227631 0)
(0.0961137605 -0.00063706135 0)
(0.0961916729 -0.000728940576 0)
(0.0962808501 -0.000818033472 0)
(0.0963809808 -0.000903483377 0)
(0.0964916117 -0.00098442664 0)
(0.0966121442 -0.00106001407 0)
(0.0967418357 -0.00112943502 0)
(0.0968798062 -0.00119194238 0)
(0.0970250499 -0.00124687661 0)
(0.0971764518 -0.00129368731 0)
(0.0973328092 -0.00133195075 0)
(0.0974928573 -0.00136138268 0)
(0.0976552959 -0.00138184581 0)
(0.0978188187 -0.00139335193 0)
(0.097982141 -0.00139605874 0)
(0.0981440266 -0.00139026166 0)
(0.0983033118 -0.00137638127 0)
(0.0984589259 -0.00135494719 0)
(0.098609907 -0.00132657916 0)
(0.0987554143 -0.00129196668 0)
(0.0988947348 -0.00125184801 0)
(0.0990272861 -0.00120698952 0)
(0.0991526158 -0.00115816632 0)
(0.0992703959 -0.0011061446 0)
(0.0993804165 -0.0010516663 0)
(0.0994825755 -0.000995436267 0)
(0.0995768685 -0.000938112079 0)
(0.0996633765 -0.000880296362 0)
(0.0997422545 -0.000822531676 0)
(0.0998137194 -0.000765297713 0)
(0.0998780399 -0.000709010658 0)
(0.099935525 -0.000654024715 0)
(0.099986515 -0.000600635374 0)
(0.100031372 -0.000549083427 0)
(0.10007047 -0.000499559135 0)
(0.100104189 -0.000452206474 0)
(0.100132909 -0.000407127542 0)
(0.100157004 -0.000364387056 0)
(0.100176837 -0.000324016828 0)
(0.10019276 -0.000286020047 0)
(0.100205112 -0.000250375253 0)
(0.100214212 -0.000217040244 0)
(0.100220368 -0.000185956005 0)
(0.10022387 -0.000157050596 0)
(0.100224992 -0.000130242834 0)
(0.100223991 -0.000105445563 0)
(0.100221109 -8.25684908e-05 0)
(0.100216571 -6.15209256e-05 0)
(0.100210588 -4.22150092e-05 0)
(0.10020334 -2.45638666e-05 0)
(0.100194925 -8.46080993e-06 0)
(0.100185445 6.25280797e-06 0)
(0.100175144 1.95623518e-05 0)
(0.100164235 3.15544677e-05 0)
(0.100152791 4.22789168e-05 0)
(0.100140859 5.18211839e-05 0)
(0.100128493 6.02670096e-05 0)
(0.100115753 6.7694695e-05 0)
(0.100102694 7.41886746e-05 0)
(0.100089373 7.98314916e-05 0)
(0.100075849 8.46978914e-05 0)
(0.100062181 8.88552738e-05 0)
(0.100048432 9.23655479e-05 0)
(0.100034663 9.52874962e-05 0)
(0.100020922 9.76773296e-05 0)