/*--------------------------------*- C++ -*----------------------------------*\
| =========                 |                                                 |
| \\      /  F ield         | OpenFOAM: The Open Source CFD Toolbox           |
|  \\    /   O peration     | Version:  v2012                                 |
|   \\  /    A nd           | Website:  www.openfoam.com                      |
|    \\/     M anipulation  |                                                 |
\*---------------------------------------------------------------------------*/
FoamFile
{
    version     2.0;
    format      ascii;
    class       surfaceScalarField;
    location    "2.34";
    object      phi;
}
// * * * * * * * * * * * * * * * * * * * * * * * * * * * * * * * * * * * * * //

dimensions      [0 3 -1 0 0 0 0];
oriented        oriented;


internalField   nonuniform List<scalar> 
56481
(
6.66593532e-07
1.50950208e-10
6.66406992e-07
4.38387243e-10
6.66121875e-07
7.06254448e-10
6.65757336e-07
9.31129357e-10
6.65336321e-07
1.09216966e-09
6.64884067e-07
1.17525632e-09
6.64425742e-07
1.17733117e-09
6.63984103e-07
1.10581924e-09
6.6357881e-07
9.72232265e-10
6.63227139e-07
7.87053754e-10
6.62944439e-07
5.61165897e-10
6.6274384e-07
3.11173344e-10
6.62623601e-07
5.84148798e-11
6.62533835e-07
-1.3577041e-10
6.62468495e-07
-2.48106157e-10
6.62415888e-07
-2.47546495e-10
6.62361888e-07
-1.29028482e-10
6.62286005e-07
9.71187192e-11
6.62125003e-07
3.98171241e-10
6.61883321e-07
7.22204752e-10
6.61567184e-07
1.0410933e-09
6.61190605e-07
1.32165621e-09
6.60772189e-07
1.53720218e-09
6.60332051e-07
1.67205859e-09
6.59890242e-07
1.72019824e-09
6.59465647e-07
1.68358708e-09
6.59075137e-07
1.5711973e-09
6.58732825e-07
1.39817565e-09
6.58449078e-07
1.18537926e-09
6.58229063e-07
9.59181252e-10
6.5807112e-07
7.50696669e-10
6.57965648e-07
5.93398121e-10
6.57895655e-07
5.18617477e-10
6.57839447e-07
5.49344689e-10
6.57771079e-07
6.93745404e-10
6.5766666e-07
9.42544048e-10
6.57508991e-07
1.26954343e-09
6.572899e-07
1.63642178e-09
6.57011013e-07
2.00111336e-09
6.56682177e-07
2.3273985e-09
6.56318043e-07
2.59257661e-09
6.55933923e-07
2.79080005e-09
6.55542201e-07
2.9312792e-09
6.55150261e-07
3.03244953e-09
6.54760282e-07
3.11457382e-09
6.54370535e-07
3.19354628e-09
6.53977395e-07
3.27777961e-09
6.53577181e-07
3.36847072e-09
6.53167295e-07
3.46215177e-09
6.52746516e-07
3.55382537e-09
6.52314711e-07
3.63928374e-09
6.51872334e-07
3.71603224e-09
6.51420013e-07
3.78304858e-09
6.50958369e-07
3.84001659e-09
6.50488026e-07
3.88662823e-09
6.50009715e-07
3.92224508e-09
6.49524378e-07
3.9459015e-09
6.49033223e-07
3.95648001e-09
6.48537733e-07
3.95288921e-09
6.48039646e-07
3.93416442e-09
6.4754093e-07
3.89949187e-09
6.47043764e-07
3.8481961e-09
6.46550516e-07
3.77972485e-09
6.46063721e-07
3.69364524e-09
6.45586059e-07
3.58964814e-09
6.45120329e-07
3.4675595e-09
6.44669413e-07
3.3273509e-09
6.44236254e-07
3.16913985e-09
6.43823837e-07
2.99319914e-09
6.43435179e-07
2.79995778e-09
6.43073329e-07
2.58999423e-09
6.42741376e-07
2.36403396e-09
6.42442452e-07
2.12293401e-09
6.42179735e-07
1.86765664e-09
6.41956462e-07
1.59920991e-09
6.41776102e-07
1.31846709e-09
6.4164169e-07
1.02679441e-09
6.41555207e-07
7.25760222e-10
6.41517609e-07
4.16670996e-10
6.41527486e-07
1.02435973e-10
6.41596215e-07
-2.18164462e-10
6.41724477e-07
-5.40248286e-10
6.41912702e-07
-8.64623604e-10
6.42160883e-07
-1.1894116e-09
6.42468991e-07
-1.51270454e-09
6.42836703e-07
-1.83260069e-09
6.43263167e-07
-2.14694148e-09
6.43746971e-07
-2.45343123e-09
6.4428614e-07
-2.74971366e-09
6.44878128e-07
-3.03338484e-09
6.45519845e-07
-3.30202083e-09
6.46207707e-07
-3.55323962e-09
6.46937685e-07
-3.78476345e-09
6.47705361e-07
-3.99449583e-09
6.48505977e-07
-4.18059267e-09
6.49334484e-07
-4.34151628e-09
6.50185598e-07
-4.47608613e-09
6.51053863e-07
-4.58350736e-09
6.5193373e-07
-4.66337664e-09
6.52819639e-07
-4.71568935e-09
6.53706109e-07
-4.74082959e-09
6.54587822e-07
-4.73954323e-09
6.55459702e-07
-4.71291815e-09
6.56316986e-07
-4.66234385e-09
6.57155276e-07
-4.58947419e-09
6.5797059e-07
-4.49617157e-09
6.58759389e-07
-4.38446897e-09
6.595186e-07
-4.25650711e-09
6.60245625e-07
-4.11449316e-09
6.60938334e-07
-3.96064894e-09
6.6159506e-07
-3.7971719e-09
6.62214573e-07
-3.62619025e-09
6.62796048e-07
-3.44973606e-09
6.63339023e-07
-3.26971537e-09
6.63843332e-07
-3.08787217e-09
6.64308997e-07
-2.90575508e-09
6.64736537e-07
-2.72463344e-09
6.65127047e-07
-2.54556546e-09
6.65481792e-07
-2.36954988e-09
6.65802168e-07
-2.19749656e-09
6.66089672e-07
-2.03018949e-09
6.66345872e-07
-1.86828272e-09
6.66572376e-07
-1.71229911e-09
6.66770803e-07
-1.56263014e-09
6.66942738e-07
-1.4195315e-09
6.67089813e-07
-1.28323049e-09
6.67213698e-07
-1.15383608e-09
6.67316056e-07
-1.03133284e-09
6.67398525e-07
-9.15637021e-10
6.67462703e-07
-8.0661601e-10
6.67510135e-07
-7.04099138e-10
6.67542302e-07
-6.07887284e-10
6.67560614e-07
-5.17755504e-10
6.67566397e-07
-4.33442737e-10
6.67560896e-07
-3.54640152e-10
6.67545341e-07
-2.8102344e-10
6.67521084e-07
-2.12309963e-10
6.67489786e-07
-1.48366633e-10
6.67453543e-07
-8.93819212e-11
6.67414733e-07
-3.60258117e-11
6.67374265e-07
1.18642919e-11
6.67327755e-07
5.67298194e-11
6.67273259e-07
9.39390108e-11
6.67212688e-07
1.26009298e-10
6.67147152e-07
1.54235117e-10
6.67077558e-07
1.79244027e-10
6.67004699e-07
2.01450231e-10
6.66929287e-07
2.21185294e-10
6.66851967e-07
2.38703119e-10
6.66773317e-07
2.54211815e-10
6.6669383e-07
2.67887001e-10
6.66613921e-07
2.798645e-10
6.66533925e-07
2.9024758e-10
6.66454106e-07
2.99123847e-10
6.66374671e-07
3.06576003e-10
6.66295786e-07
3.12685983e-10
6.66217589e-07
3.17537535e-10
6.66140197e-07
3.21217223e-10
6.66063722e-07
3.23813617e-10
6.65988265e-07
3.25416241e-10
6.65913926e-07
3.26113039e-10
6.65840798e-07
3.25988644e-10
6.65768971e-07
3.2512208e-10
6.65698528e-07
3.23586346e-10
6.65629546e-07
3.21446829e-10
6.65562093e-07
3.18761767e-10
6.65496226e-07
3.15582263e-10
6.65431995e-07
3.11953316e-10
6.65369439e-07
3.07914207e-10
6.65308589e-07
3.03500043e-10
6.65249468e-07
2.98742767e-10
6.65192093e-07
2.93671596e-10
6.65136472e-07
2.88314205e-10
6.65082614e-07
2.826972e-10
6.65030523e-07
2.76845924e-10
6.64980201e-07
2.7078495e-10
6.64931651e-07
2.64537941e-10
6.64884875e-07
2.58127015e-10
6.64839877e-07
2.5157294e-10
6.64796661e-07
2.44894589e-10
6.64755232e-07
2.38108968e-10
6.64715596e-07
2.31230546e-10
6.64677762e-07
2.24271608e-10
6.64641741e-07
2.17240901e-10
6.64607548e-07
2.10146682e-10
6.64575206e-07
2.02976609e-10
6.64544745e-07
1.95779764e-10
6.64516258e-07
1.88254917e-10
6.64489721e-07
1.81607398e-10
1.69592357e-10
6.66616167e-07
2.01382732e-10
6.6644733e-07
6.07224262e-10
6.66170362e-07
9.83222914e-10
6.65802399e-07
1.29909273e-09
6.65366571e-07
1.52799757e-09
6.64890799e-07
1.65102773e-09
6.644041e-07
1.66403049e-09
6.63933098e-07
1.57682144e-09
6.63500961e-07
1.40436884e-09
6.63127888e-07
1.16012738e-09
6.62830518e-07
8.58535871e-10
6.62618102e-07
5.23589094e-10
6.6248156e-07
1.9495636e-10
6.62430129e-07
-8.43389135e-11
6.62438662e-07
-2.56639103e-10
6.62466556e-07
-2.75441124e-10
6.62468631e-07
-1.31102601e-10
6.62416787e-07
1.48962326e-10
6.62295317e-07
5.19640968e-10
6.62079394e-07
9.38128357e-10
6.61770106e-07
1.35038055e-09
6.61380088e-07
1.71167443e-09
6.60929974e-07
1.98731653e-09
6.60445624e-07
2.15640817e-09
6.59954223e-07
2.21159982e-09
6.59481532e-07
2.15627766e-09
6.59050478e-07
2.00225175e-09
6.58680175e-07
1.7684785e-09
6.58384797e-07
1.48075692e-09
6.58172021e-07
1.17195766e-09
6.580412e-07
8.81517602e-10
6.5798194e-07
6.52657748e-10
6.57973964e-07
5.26593237e-10
6.57988774e-07
5.34535048e-10
6.57992924e-07
6.89595761e-10
6.57953835e-07
9.81632143e-10
6.57846096e-07
1.37728337e-09
6.57656235e-07
1.82628183e-09
6.57384655e-07
2.27269369e-09
6.57044126e-07
2.66792732e-09
6.56655313e-07
2.98138961e-09
6.56240753e-07
3.20536001e-09
6.55819239e-07
3.35279319e-09
6.55402279e-07
3.44940965e-09
6.54993392e-07
3.52346159e-09
6.5458987e-07
3.59706793e-09
6.54185839e-07
3.68181056e-09
6.53775217e-07
3.7790931e-09
6.53353608e-07
3.88376069e-09
6.52918858e-07
3.98857458e-09
6.52470612e-07
4.08753045e-09
6.52009471e-07
4.17717285e-09
6.51536293e-07
4.2562267e-09
6.51051845e-07
4.32446493e-09
6.50556797e-07
4.38167561e-09
6.50051887e-07
4.42715505e-09
6.49538084e-07
4.45970458e-09
6.49016682e-07
4.47788235e-09
6.4848931e-07
4.48026151e-09
6.47957898e-07
4.46557576e-09
6.47424637e-07
4.43275293e-09
6.46891939e-07
4.38089397e-09
6.46362417e-07
4.30924722e-09
6.4583886e-07
4.21720235e-09
6.45324212e-07
4.10429628e-09
6.44821544e-07
3.97022708e-09
6.4433403e-07
3.8148653e-09
6.43864918e-07
3.63825154e-09
6.43417514e-07
3.44060338e-09
6.42995158e-07
3.22231308e-09
6.42601215e-07
2.98393793e-09
6.42239051e-07
2.72619738e-09
6.41912027e-07
2.44995871e-09
6.41623468e-07
2.15621501e-09
6.41376602e-07
1.84607584e-09
6.411743e-07
1.52076903e-09
6.41019418e-07
1.18167717e-09
6.40914932e-07
8.30246221e-10
6.4086418e-07
4.67423121e-10
6.40872832e-07
9.3783262e-11
6.40938583e-07
-2.83915697e-10
6.41065661e-07
-6.6732539e-10
6.41255095e-07
-1.05405813e-09
6.41508005e-07
-1.44232103e-09
6.41824881e-07
-1.82958143e-09
6.42205562e-07
-2.21328098e-09
6.42649344e-07
-2.59072408e-09
6.43154936e-07
-2.95902339e-09
6.43720401e-07
-3.31517783e-09
6.44343152e-07
-3.65613648e-09
6.45019978e-07
-3.97884676e-09
6.45747068e-07
-4.28032951e-09
6.46520057e-07
-4.55775237e-09
6.47334078e-07
-4.80851664e-09
6.48183821e-07
-5.03033603e-09
6.49063603e-07
-5.22129846e-09
6.49967447e-07
-5.37992932e-09
6.50889171e-07
-5.50523168e-09
6.51822495e-07
-5.59670049e-09
6.52761142e-07
-5.65433675e-09
6.5369895e-07
-5.67863783e-09
6.54629971e-07
-5.67056417e-09
6.55548565e-07
-5.63151164e-09
6.56449479e-07
-5.56325754e-09
6.57327914e-07
-5.46790955e-09
6.58179575e-07
-5.34783254e-09
6.59000703e-07
-5.20559692e-09
6.59788094e-07
-5.04389828e-09
6.60539104e-07
-4.86550329e-09
6.61251639e-07
-4.67318399e-09
6.61924135e-07
-4.46966805e-09
6.62555528e-07
-4.25758263e-09
6.63145212e-07
-4.03942048e-09
6.63693001e-07
-3.8175043e-09
6.64199079e-07
-3.59395058e-09
6.64663976e-07
-3.37065175e-09
6.65088593e-07
-3.14924994e-09
6.65474172e-07
-2.93114464e-09
6.65822177e-07
-2.71755466e-09
6.66134222e-07
-2.50954167e-09
6.66412031e-07
-2.30799916e-09
6.66657404e-07
-2.1136557e-09
6.66872184e-07
-1.92707907e-09
6.67058243e-07
-1.74868872e-09
6.67217479e-07
-1.57876801e-09
6.67351742e-07
-1.41749291e-09
6.67462828e-07
-1.2649225e-09
6.67552503e-07
-1.12100711e-09
6.67622483e-07
-9.85617095e-10
6.6767443e-07
-8.58563286e-10
6.67709942e-07
-7.39611452e-10
6.67730554e-07
-6.28498947e-10
6.67737756e-07
-5.24957662e-10
6.67733032e-07
-4.28719053e-10
6.67717823e-07
-3.39431054e-10
6.6769352e-07
-2.56720147e-10
6.67661389e-07
-1.8017904e-10
6.67622355e-07
-1.09332354e-10
6.67576371e-07
-4.33977024e-11
6.67523219e-07
1.71255069e-11
6.67465646e-07
6.94371416e-11
6.67405586e-07
1.16790049e-10
6.67341244e-07
1.58281584e-10
6.67272761e-07
1.94491588e-10
6.67200678e-07
2.26318055e-10
6.67125567e-07
2.54355446e-10
6.67047981e-07
2.79036586e-10
6.66968434e-07
3.00731419e-10
6.66887394e-07
3.19743474e-10
6.66805284e-07
3.36321668e-10
6.66722496e-07
3.50675639e-10
6.6663938e-07
3.62979969e-10
6.66556248e-07
3.73379506e-10
6.66473371e-07
3.82001171e-10
6.66390983e-07
3.88964364e-10
6.66309283e-07
3.94385449e-10
6.66228441e-07
3.98379341e-10
6.66148599e-07
4.01059085e-10
6.66069879e-07
4.02534525e-10
6.65992383e-07
4.02912011e-10
6.65916203e-07
4.02292792e-10
6.65841419e-07
4.00772275e-10
6.65768103e-07
3.98438299e-10
6.65696318e-07
3.95371537e-10
6.65626121e-07
3.91644315e-10
6.65557561e-07
3.8732164e-10
6.65490682e-07
3.82461324e-10
6.6542552e-07
3.77115058e-10
6.65362105e-07
3.71328552e-10
6.65300463e-07
3.65142996e-10
6.65240609e-07
3.58595903e-10
6.6518256e-07
3.51721327e-10
6.65126323e-07
3.44551064e-10
6.65071905e-07
3.37115081e-10
6.6501931e-07
3.29441253e-10
6.64968539e-07
3.21555992e-10
6.64919592e-07
3.13484208e-10
6.64872471e-07
3.05248705e-10
6.64827173e-07
2.96870532e-10
6.64783699e-07
2.8836842e-10
6.64742049e-07
2.79758884e-10
6.64702224e-07
2.71055484e-10
6.64664227e-07
2.62269278e-10
6.6462806e-07
2.53407334e-10
6.6459373e-07
2.44476471e-10
6.64561246e-07
2.35461349e-10
6.645306e-07
2.26425265e-10
6.64501823e-07
2.17032248e-10
6.64474558e-07
2.08872129e-10
1.94433415e-10
6.66604868e-07
2.63214446e-10
6.66430456e-07
7.81636363e-10
6.66151583e-07
1.26209634e-09
6.65785279e-07
1.66539679e-09
6.65354166e-07
1.95911055e-09
6.64884585e-07
2.12060865e-09
6.64403959e-07
2.14465658e-09
6.63937783e-07
2.04299701e-09
6.63508349e-07
1.83380268e-09
6.63135041e-07
1.53343561e-09
6.62834176e-07
1.15940082e-09
6.62617291e-07
7.40473726e-10
6.62488626e-07
3.23622073e-10
6.62428865e-07
-2.4578402e-11
6.62409e-07
-2.36774044e-10
6.62409144e-07
-2.75584878e-10
6.6240296e-07
-1.24918397e-10
6.6235255e-07
1.99372336e-10
6.62224337e-07
6.4785378e-10
6.62009168e-07
1.15329705e-09
6.61706981e-07
1.65256782e-09
6.61329361e-07
2.08929433e-09
6.60895064e-07
2.4216132e-09
6.60427136e-07
2.62433606e-09
6.59950506e-07
2.68823035e-09
6.5948963e-07
2.61715329e-09
6.59066834e-07
2.42504831e-09
6.58701127e-07
2.13418489e-09
6.58406953e-07
1.77493159e-09
6.58192563e-07
1.38634709e-09
6.58058174e-07
1.01590683e-09
6.5799443e-07
7.16401414e-10
6.57981998e-07
5.39025952e-10
6.57993111e-07
5.2342122e-10
6.57995539e-07
6.87168331e-10
6.57958177e-07
1.01899371e-09
6.57856562e-07
1.47889871e-09
6.57677113e-07
2.00573127e-09
6.57419002e-07
2.53080401e-09
6.57093039e-07
2.9938901e-09
6.56717809e-07
3.35661955e-09
6.56314246e-07
3.60892317e-09
6.55900364e-07
3.76667579e-09
6.55487735e-07
3.86203826e-09
6.55080536e-07
3.93066082e-09
6.54676931e-07
4.00067267e-09
6.54271789e-07
4.08695308e-09
6.53859445e-07
4.19143649e-09
6.53435578e-07
4.30762754e-09
6.52997864e-07
4.42628904e-09
6.52545679e-07
4.53971558e-09
6.52079385e-07
4.64346611e-09
6.51599684e-07
4.73592818e-09
6.51107274e-07
4.81687506e-09
6.50602822e-07
4.8861272e-09
6.50087097e-07
4.94288026e-09
6.49561118e-07
4.98568407e-09
6.49026242e-07
5.0127581e-09
6.48484181e-07
5.0223225e-09
6.47936969e-07
5.01278762e-09
6.47386923e-07
4.98279937e-09
6.46836604e-07
4.93121285e-09
6.46288792e-07
4.85705922e-09
6.45746456e-07
4.75953792e-09
6.45212727e-07
4.63802508e-09
6.44690863e-07
4.49209144e-09
6.44184213e-07
4.3215157e-09
6.43696185e-07
4.12627922e-09
6.43230221e-07
3.90656754e-09
6.42789774e-07
3.66275937e-09
6.42378305e-07
3.3954078e-09
6.41999269e-07
3.10523321e-09
6.41656118e-07
2.79310944e-09
6.41352285e-07
2.46004798e-09
6.41091165e-07
2.10719613e-09
6.40876115e-07
1.73581874e-09
6.40710482e-07
1.34731046e-09
6.40597452e-07
9.43276284e-10
6.40539274e-07
5.25600821e-10
6.40535595e-07
9.74621472e-11
6.4059394e-07
-3.42260466e-10
6.40715177e-07
-7.88562162e-10
6.40901159e-07
-1.24004033e-09
6.41152875e-07
-1.69403726e-09
6.41470999e-07
-2.14770542e-09
6.4185566e-07
-2.5979423e-09
6.42306345e-07
-3.04140866e-09
6.42821887e-07
-3.47456586e-09
6.43400444e-07
-3.89373469e-09
6.44039475e-07
-4.29516676e-09
6.44735739e-07
-4.67511132e-09
6.45485317e-07
-5.02990724e-09
6.46283636e-07
-5.35607194e-09
6.47125527e-07
-5.65040709e-09
6.48005286e-07
-5.91009534e-09
6.48916766e-07
-6.13277811e-09
6.49853473e-07
-6.316636e-09
6.50808683e-07
-6.46044194e-09
6.51775565e-07
-6.5635822e-09
6.52747303e-07
-6.62607523e-09
6.53717225e-07
-6.64855974e-09
6.54678913e-07
-6.6322526e-09
6.55626313e-07
-6.57891133e-09
6.56553819e-07
-6.49076399e-09
6.57456352e-07
-6.3704418e-09
6.58329405e-07
-6.22088545e-09
6.59169085e-07
-6.04527702e-09
6.59972125e-07
-5.84693889e-09
6.60735887e-07
-5.62926454e-09
6.6145834e-07
-5.39563695e-09
6.62138039e-07
-5.14936704e-09
6.62774082e-07
-4.8936262e-09
6.63366068e-07
-4.63140647e-09
6.63914045e-07
-4.36548092e-09
6.64418461e-07
-4.09836693e-09
6.64880123e-07
-3.8323132e-09
6.6530016e-07
-3.56928768e-09
6.65679995e-07
-3.31097912e-09
6.6602127e-07
-3.05882968e-09
6.66325784e-07
-2.81405615e-09
6.66595441e-07
-2.57765586e-09
6.66832207e-07
-2.35042202e-09
6.67038083e-07
-2.1329547e-09
6.67215074e-07
-1.92567991e-09
6.6736517e-07
-1.72886426e-09
6.67490316e-07
-1.54263842e-09
6.67592405e-07
-1.36701118e-09
6.67673281e-07
-1.20188316e-09
6.67734732e-07
-1.04706825e-09
6.6777848e-07
-9.02311743e-10
6.67806174e-07
-7.67304795e-10
6.67819375e-07
-6.41700362e-10
6.67819542e-07
-5.25124564e-10
6.67808001e-07
-4.17178047e-10
6.67786e-07
-3.17429689e-10
6.67754713e-07
-2.25433549e-10
6.67715263e-07
-1.40728966e-10
6.67668801e-07
-6.28708159e-11
6.67617659e-07
7.74436282e-12
6.67562547e-07
7.22380298e-11
6.67502284e-07
1.29700372e-10
6.67437973e-07
1.81100994e-10
6.67369558e-07
2.26696451e-10
6.67297254e-07
2.66795406e-10
6.67221583e-07
3.01989033e-10
6.67143104e-07
3.32834309e-10
6.67062361e-07
3.59779445e-10
6.6697989e-07
3.83202461e-10
6.66896206e-07
4.0342772e-10
6.6681178e-07
4.20747821e-10
6.6672702e-07
4.35435716e-10
6.66642263e-07
4.47737073e-10
6.66557779e-07
4.57862944e-10
6.66473786e-07
4.65994707e-10
6.66390457e-07
4.72292654e-10
6.66307941e-07
4.76901618e-10
6.66226365e-07
4.79955276e-10
6.66145845e-07
4.81579152e-10
6.66066487e-07
4.81892738e-10
6.65988388e-07
4.81010738e-10
6.65911639e-07
4.79041927e-10
6.65836322e-07
4.76089034e-10
6.65762514e-07
4.72247169e-10
6.6569028e-07
4.67604887e-10
6.65619682e-07
4.62242796e-10
6.65550769e-07
4.56234395e-10
6.65483584e-07
4.4964583e-10
6.65418163e-07
4.42536898e-10
6.6535453e-07
4.34960925e-10
6.65292707e-07
4.26966143e-10
6.65232707e-07
4.18596304e-10
6.65174537e-07
4.09890631e-10
6.65118203e-07
4.00885025e-10
6.65063706e-07
3.91612491e-10
6.65011044e-07
3.82102871e-10
6.64960217e-07
3.72383717e-10
6.6491122e-07
3.62480395e-10
6.64864054e-07
3.52415585e-10
6.64818714e-07
3.42209951e-10
6.64775201e-07
3.31881709e-10
6.64733513e-07
3.21446888e-10
6.6469365e-07
3.10918527e-10
6.64655612e-07
3.003072e-10
6.646194e-07
2.89619649e-10
6.64585013e-07
2.78862636e-10
6.64552454e-07
2.68020328e-10
6.64521719e-07
2.57160985e-10
6.64492851e-07
2.4589991e-10
6.6446574e-07
2.35983665e-10
2.18595379e-10
6.66611125e-07
3.18789187e-10
6.66441531e-07
9.51230434e-10
6.66164215e-07
1.53941222e-09
6.65793778e-07
2.03583412e-09
6.65352341e-07
2.40054756e-09
6.64867402e-07
2.60554724e-09
6.64368479e-07
2.64357997e-09
6.63883665e-07
2.52781093e-09
6.6343793e-07
2.27953748e-09
6.63053204e-07
1.91816192e-09
6.62747806e-07
1.46479877e-09
6.62533491e-07
9.54789195e-10
6.62410777e-07
4.46335757e-10
6.62369607e-07
1.65916913e-11
6.62390758e-07
-2.57925173e-10
6.62435688e-07
-3.20515179e-10
6.6246288e-07
-1.52110448e-10
6.6243635e-07
2.25902417e-10
6.62329087e-07
7.5511672e-10
6.62123862e-07
1.35852191e-09
6.61819629e-07
1.95680126e-09
6.61428378e-07
2.48054542e-09
6.60971541e-07
2.87845047e-09
6.60475905e-07
3.11997122e-09
6.59970271e-07
3.19386419e-09
6.59482857e-07
3.10456739e-09
6.59039398e-07
2.86850758e-09
6.58661674e-07
2.51190922e-09
6.58366006e-07
2.07059985e-09
6.58161436e-07
1.5909167e-09
6.58047738e-07
1.12960498e-09
6.58013893e-07
7.50246137e-10
6.58038041e-07
5.14878355e-10
6.58089621e-07
4.71840393e-10
6.58133164e-07
6.43625891e-10
6.58133553e-07
1.01860412e-09
6.58062559e-07
1.54989326e-09
6.57904235e-07
2.16405478e-09
6.57657313e-07
2.77772657e-09
6.57333886e-07
3.31731653e-09
6.56954913e-07
3.7355935e-09
6.56544001e-07
4.01983461e-09
6.56121476e-07
4.18920045e-09
6.55700444e-07
4.28307115e-09
6.55285721e-07
4.34538361e-09
6.54875371e-07
4.41102192e-09
6.54463701e-07
4.49862383e-09
6.5404432e-07
4.61081672e-09
6.53612244e-07
4.73970407e-09
6.53164652e-07
4.87388066e-09
6.52700608e-07
5.00376037e-09
6.52220291e-07
5.12378228e-09
6.51724302e-07
5.23191756e-09
6.51213279e-07
5.32789811e-09
6.50687858e-07
5.41154799e-09
6.50148808e-07
5.48192994e-09
6.49597191e-07
5.53730154e-09
6.49034452e-07
5.57549754e-09
6.48462434e-07
5.5943398e-09
6.47883346e-07
5.59187552e-09
6.47299709e-07
5.56643676e-09
6.46714313e-07
5.51660932e-09
6.4613018e-07
5.44119125e-09
6.45550537e-07
5.33918126e-09
6.44978776e-07
5.20978639e-09
6.44418427e-07
5.05243992e-09
6.4387313e-07
4.86681332e-09
6.43346601e-07
4.6528075e-09
6.42842615e-07
4.41055387e-09
6.42364971e-07
4.14040379e-09
6.41917468e-07
3.84291013e-09
6.41503881e-07
3.51882054e-09
6.4112793e-07
3.16906066e-09
6.40793265e-07
2.79471251e-09
6.40503454e-07
2.39700787e-09
6.40261949e-07
1.97732306e-09
6.40072076e-07
1.53718409e-09
6.39937069e-07
1.07828316e-09
6.39860204e-07
6.02465341e-10
6.39845834e-07
1.11832569e-10
6.39894947e-07
-3.9137391e-10
6.40010624e-07
-9.04239289e-10
6.40194743e-07
-1.42415924e-09
6.40448895e-07
-1.94818861e-09
6.40774109e-07
-2.47292025e-09
6.41170809e-07
-2.99464195e-09
6.41638752e-07
-3.50935169e-09
6.42176972e-07
-4.0127853e-09
6.42783713e-07
-4.5004763e-09
6.43456397e-07
-4.96785039e-09
6.44191605e-07
-5.41031925e-09
6.44985096e-07
-5.82339803e-09
6.45831842e-07
-6.20281822e-09
6.46726094e-07
-6.54465929e-09
6.47661467e-07
-6.84546837e-09
6.48631046e-07
-7.10235689e-09
6.4962751e-07
-7.31310002e-09
6.50643272e-07
-7.47620422e-09
6.51670626e-07
-7.59093645e-09
6.52701899e-07
-7.65734829e-09
6.53729601e-07
-7.67626139e-09
6.54746563e-07
-7.64921427e-09
6.55746063e-07
-7.57841138e-09
6.56721931e-07
-7.46663218e-09
6.57668631e-07
-7.31714222e-09
6.5858132e-07
-7.13357377e-09
6.59455879e-07
-6.91983629e-09
6.60288931e-07
-6.67999066e-09
6.61077828e-07
-6.4181612e-09
6.61820626e-07
-6.13843579e-09
6.6251605e-07
-5.84479073e-09
6.63163435e-07
-5.54101124e-09
6.63762674e-07
-5.23064547e-09
6.64314154e-07
-4.91696091e-09
6.64818694e-07
-4.60290657e-09
6.65277484e-07
-4.29110368e-09
6.65692035e-07
-3.98383891e-09
6.66064121e-07
-3.68306507e-09
6.66395718e-07
-3.39042651e-09
6.66688942e-07
-3.10728025e-09
6.66945998e-07
-2.83471134e-09
6.67169134e-07
-2.5735587e-09
6.67360613e-07
-2.32443339e-09
6.67522677e-07
-2.08774412e-09
6.6765753e-07
-1.86371657e-09
6.67767311e-07
-1.65242008e-09
6.67854088e-07
-1.453788e-09
6.67919841e-07
-1.26763548e-09
6.67966455e-07
-1.09368301e-09
6.6799572e-07
-9.31576705e-10
6.68009321e-07
-7.8090583e-10
6.68008841e-07
-6.41219995e-10
6.67995756e-07
-5.12039416e-10
6.67971439e-07
-3.92860876e-10
6.67937184e-07
-2.83174763e-10
6.6789428e-07
-1.82529407e-10
6.67844223e-07
-9.06720767e-11
6.67788994e-07
-7.64255873e-12
6.67727456e-07
6.92827245e-11
6.67661316e-07
1.3837775e-10
6.67590844e-07
2.0017292e-10
6.67516714e-07
2.55230408e-10
6.67439383e-07
3.04027898e-10
6.67359201e-07
3.46977287e-10
6.67276608e-07
3.84582373e-10
6.67192078e-07
4.17363974e-10
6.67106052e-07
4.45805412e-10
6.67018909e-07
4.70345201e-10
6.66930975e-07
4.9136211e-10
6.66842549e-07
5.0917381e-10
6.66753931e-07
5.24053539e-10
6.66665421e-07
5.36247618e-10
6.665773e-07
5.45983259e-10
6.66489825e-07
5.53470285e-10
6.66403215e-07
5.58902543e-10
6.66317656e-07
5.62460669e-10
6.66233298e-07
5.64313312e-10
6.66150262e-07
5.64614583e-10
6.66068649e-07
5.63506433e-10
6.65988539e-07
5.61120605e-10
6.65910001e-07
5.57579196e-10
6.65833095e-07
5.52995774e-10
6.65757868e-07
5.47474236e-10
6.65684362e-07
5.41110247e-10
6.65612615e-07
5.33990148e-10
6.65542657e-07
5.26192529e-10
6.65474514e-07
5.1778824e-10
6.6540821e-07
5.08841528e-10
6.65343761e-07
4.99409789e-10
6.65281182e-07
4.89545063e-10
6.65220484e-07
4.79294679e-10
6.65161673e-07
4.68701137e-10
6.65104755e-07
4.5780341e-10
6.6504973e-07
4.46637324e-10
6.64996598e-07
4.35235151e-10
6.64945355e-07
4.23626514e-10
6.64895997e-07
4.11838465e-10
6.64848517e-07
3.99894879e-10
6.6480291e-07
3.8781719e-10
6.64759168e-07
3.75623925e-10
6.64717284e-07
3.63331083e-10
6.64677251e-07
3.50951376e-10
6.64639063e-07
3.3849504e-10
6.64602714e-07
3.25968477e-10
6.64568198e-07
3.13379092e-10
6.64535508e-07
3.00710267e-10
6.64504622e-07
2.88047024e-10
6.64475551e-07
2.74970411e-10
6.64447951e-07
2.63584478e-10
2.43875806e-10
6.66610138e-07
3.75251211e-10
6.66439194e-07
1.12217433e-09
6.6615991e-07
1.81869586e-09
6.65787337e-07
2.40840714e-09
6.65343823e-07
2.84406165e-09
6.64856815e-07
3.09255561e-09
6.64355554e-07
3.1448414e-09
6.6386782e-07
3.01554488e-09
6.63418456e-07
2.72890059e-09
6.63029217e-07
2.30740136e-09
6.62718085e-07
1.77593109e-09
6.62497344e-07
1.17552967e-09
6.62369163e-07
5.7451728e-10
6.62323416e-07
6.23384781e-11
6.62338985e-07
-2.73494549e-10
6.62378626e-07
-3.6015576e-10
6.62402655e-07
-1.76139861e-10
6.62376433e-07
2.5212444e-10
6.62271971e-07
8.59579028e-10
6.62072942e-07
1.55755044e-09
6.61777459e-07
2.25228436e-09
6.61395897e-07
2.86210776e-09
6.60948132e-07
3.32621516e-09
6.60459989e-07
3.60811474e-09
6.59959817e-07
3.69403636e-09
6.59475774e-07
3.58860999e-09
6.59033868e-07
3.31041379e-09
6.58656442e-07
2.88933462e-09
6.58360636e-07
2.36640612e-09
6.58156503e-07
1.79504954e-09
6.58044948e-07
1.24116013e-09
6.58016079e-07
7.79115667e-10
6.58048732e-07
4.82224768e-10
6.58111782e-07
4.08790397e-10
6.58168468e-07
5.86940397e-10
6.58183127e-07
1.00394435e-09
6.58127312e-07
1.6057089e-09
6.57984552e-07
2.30681409e-09
6.57752687e-07
3.00959163e-09
6.57442859e-07
3.62714462e-09
6.57075355e-07
4.10309733e-09
6.56673562e-07
4.42162791e-09
6.56257972e-07
4.60479094e-09
6.55842056e-07
4.69898685e-09
6.55430982e-07
4.75645755e-09
6.55022997e-07
4.81900744e-09
6.54612384e-07
4.90923671e-09
6.54192579e-07
5.03062105e-09
6.5375835e-07
5.17393372e-09
6.53306632e-07
5.32559847e-09
6.52836288e-07
5.47410449e-09
6.52347353e-07
5.61271703e-09
6.51840327e-07
5.7389436e-09
6.51315789e-07
5.85243612e-09
6.5077435e-07
5.95298692e-09
6.50216792e-07
6.03948802e-09
6.49644231e-07
6.10986251e-09
6.49058213e-07
6.16151512e-09
6.48460729e-07
6.19182384e-09
6.47854176e-07
6.19842901e-09
6.47241304e-07
6.17930827e-09
6.46625172e-07
6.13274112e-09
6.46009104e-07
6.05726021e-09
6.45396647e-07
5.95163821e-09
6.44791534e-07
5.81489872e-09
6.44197634e-07
5.64633977e-09
6.43618899e-07
5.445549e-09
6.43059315e-07
5.21239123e-09
6.42522868e-07
4.94700106e-09
6.42013514e-07
4.64975774e-09
6.41535173e-07
4.32125095e-09
6.41091729e-07
3.96226462e-09
6.40687032e-07
3.57375742e-09
6.40324899e-07
3.15684544e-09
6.40009101e-07
2.71280583e-09
6.39743347e-07
2.24307783e-09
6.39531264e-07
1.74926691e-09
6.39376371e-07
1.23317564e-09
6.39282015e-07
6.96821495e-10
6.39250763e-07
1.43084197e-10
6.39286744e-07
-4.27354719e-10
6.39392517e-07
-1.01001189e-09
6.39570604e-07
-1.60224635e-09
6.39822942e-07
-2.20052623e-09
6.40150932e-07
-2.80091103e-09
6.40555348e-07
-3.39905748e-09
6.41036235e-07
-3.99023898e-09
6.41592842e-07
-4.56939242e-09
6.42223549e-07
-5.13118278e-09
6.42925809e-07
-5.67011099e-09
6.4369612e-07
-6.18062968e-09
6.44530011e-07
-6.65728912e-09
6.45422073e-07
-7.09488032e-09
6.46366016e-07
-7.48860274e-09
6.47354767e-07
-7.83421922e-09
6.48380594e-07
-8.1281838e-09
6.49435264e-07
-8.36777017e-09
6.5051022e-07
-8.55115967e-09
6.51596764e-07
-8.67748029e-09
6.5268625e-07
-8.746835e-09
6.5377027e-07
-8.76028081e-09
6.54840815e-07
-8.7197596e-09
6.55890432e-07
-8.62802811e-09
6.5691234e-07
-8.48854008e-09
6.57900527e-07
-8.30532919e-09
6.5884981e-07
-8.08285749e-09
6.59755873e-07
-7.82589866e-09
6.60615264e-07
-7.53938178e-09
6.61425384e-07
-7.22828076e-09
6.6218444e-07
-6.89749272e-09
6.62891397e-07
-6.55174759e-09
6.63545902e-07
-6.19551555e-09
6.64148211e-07
-5.83295495e-09
6.64699116e-07
-5.46786536e-09
6.65199858e-07
-5.10364902e-09
6.6565206e-07
-4.74330552e-09
6.6605765e-07
-4.38942922e-09
6.66418798e-07
-4.04421292e-09
6.66737847e-07
-3.70947585e-09
6.67017256e-07
-3.38668874e-09
6.67259541e-07
-3.07699645e-09
6.67467236e-07
-2.78125338e-09
6.67642852e-07
-2.50004934e-09
6.6778885e-07
-2.23374247e-09
6.67907618e-07
-1.98248482e-09
6.68001454e-07
-1.74625576e-09
6.68072555e-07
-1.52488895e-09
6.68123015e-07
-1.31809559e-09
6.68154823e-07
-1.12549068e-09
6.68169859e-07
-9.46613006e-10
6.68169895e-07
-7.80941971e-10
6.68156592e-07
-6.27916814e-10
6.68131506e-07
-4.86953991e-10
6.68096107e-07
-3.57461395e-10
6.68051755e-07
-2.38822858e-10
6.67999457e-07
-1.30231323e-10
6.67939299e-07
-3.05136802e-11
6.6787261e-07
5.90463553e-11
6.67802011e-07
1.39881693e-10
6.67727436e-07
2.12952737e-10
6.67649271e-07
2.78337569e-10
6.67568006e-07
3.36495613e-10
6.67484076e-07
3.87957391e-10
6.67397846e-07
4.33207993e-10
6.67309682e-07
4.72746138e-10
6.67219973e-07
5.07072841e-10
6.67129121e-07
5.36657398e-10
6.67037539e-07
5.61927312e-10
6.66945628e-07
5.83273067e-10
6.66853745e-07
6.01056714e-10
6.66762184e-07
6.15614752e-10
6.66671179e-07
6.27252087e-10
6.66580925e-07
6.36237734e-10
6.66491587e-07
6.42808225e-10
6.66403312e-07
6.47177595e-10
6.66316229e-07
6.49543219e-10
6.66230456e-07
6.50086372e-10
6.66146097e-07
6.48974023e-10
6.66063243e-07
6.4636032e-10
6.65981975e-07
6.42388856e-10
6.65902362e-07
6.37192206e-10
6.65824465e-07
6.30892889e-10
6.65748336e-07
6.23602747e-10
6.65674021e-07
6.15425173e-10
6.65601557e-07
6.06453962e-10
6.65530975e-07
5.96774963e-10
6.65462297e-07
5.86465931e-10
6.65395541e-07
5.7559767e-10
6.65330717e-07
5.64233575e-10
6.65267831e-07
5.52431093e-10
6.65206884e-07
5.4024221e-10
6.65147872e-07
5.27713098e-10
6.6509079e-07
5.1488548e-10
6.6503563e-07
5.01797056e-10
6.64982384e-07
4.8848114e-10
6.64931043e-07
4.74967845e-10
6.64881597e-07
4.61284317e-10
6.64834038e-07
4.47454219e-10
6.64788356e-07
4.33498688e-10
6.64744544e-07
4.19435934e-10
6.64702593e-07
4.05281739e-10
6.64662496e-07
3.91048677e-10
6.64624244e-07
3.76747022e-10
6.64587829e-07
3.62383564e-10
6.64553242e-07
3.47966335e-10
6.64520473e-07
3.33479125e-10
6.6448951e-07
3.190104e-10
6.64460388e-07
3.04091979e-10
6.64433002e-07
2.90970419e-10
2.68286911e-10
6.66609844e-07
4.32107559e-10
6.66437973e-07
1.29404472e-09
6.66156305e-07
2.10036417e-09
6.6577894e-07
2.78577218e-09
6.65327798e-07
3.29520352e-09
6.64830753e-07
3.58960089e-09
6.64318167e-07
3.65742745e-09
6.63819256e-07
3.51445581e-09
6.63360295e-07
3.18786134e-09
6.62964407e-07
2.7032889e-09
6.62650934e-07
2.08940436e-09
6.62433161e-07
1.39330325e-09
6.62314043e-07
6.93634544e-10
6.62283935e-07
9.24464447e-11
6.62311774e-07
-3.01332909e-10
6.62366299e-07
-4.14680982e-10
6.6240684e-07
-2.1668074e-10
6.62393789e-07
2.65174931e-10
6.62297421e-07
9.55947098e-10