/*--------------------------------*- C++ -*----------------------------------*\
| =========                 |                                                 |
| \\      /  F ield         | OpenFOAM: The Open Source CFD Toolbox           |
|  \\    /   O peration     | Version:  v2012                                 |
|   \\  /    A nd           | Website:  www.openfoam.com                      |
|    \\/     M anipulation  |                                                 |
\*---------------------------------------------------------------------------*/
FoamFile
{
    version     2.0;
    format      ascii;
    class       surfaceScalarField;
    location    "2.34";
    object      phiHbyA;
}
// * * * * * * * * * * * * * * * * * * * * * * * * * * * * * * * * * * * * * //

dimensions      [0 3 -1 0 0 0 0];
oriented        oriented;


internalField   nonuniform List<scalar> 
56481
(
6.66594794e-07
1.46597727e-10
6.66409725e-07
4.33781291e-10
6.66125948e-07
7.01378796e-10
6.6576257e-07
9.26081124e-10
6.65342665e-07
1.087024e-09
6.64891546e-07
1.17004828e-09
6.64434373e-07
1.17208263e-09
6.63993881e-07
1.10054873e-09
6.63589729e-07
9.66948494e-10
6.63239197e-07
7.81748557e-10
6.62957647e-07
5.55812776e-10
6.6275835e-07
3.05723801e-10
6.62639043e-07
5.2667144e-11
6.62549601e-07
-1.42264652e-10
6.62484834e-07
-2.54580057e-10
6.62432759e-07
-2.53850377e-10
6.62379178e-07
-1.3498248e-10
6.62303882e-07
9.18732098e-11
6.62143859e-07
3.93740747e-10
6.61903125e-07
7.18307168e-10
6.61587715e-07
1.03752973e-09
6.61211755e-07
1.31840627e-09
6.60793916e-07
1.53427139e-09
6.60354292e-07
1.66942764e-09
6.59912907e-07
1.71784851e-09
6.59488648e-07
1.68151193e-09
6.59098387e-07
1.56939703e-09
6.58756238e-07
1.39665428e-09
6.58472563e-07
1.1841435e-09
6.58252532e-07
9.58238147e-10
6.58094486e-07
7.50050409e-10
6.57988825e-07
5.93046975e-10
6.57918554e-07
5.18551216e-10
6.57861946e-07
5.49542455e-10
6.57793069e-07
6.94198172e-10
6.57688047e-07
9.4324316e-10
6.57529669e-07
1.27047486e-09
6.57309764e-07
1.63757204e-09
6.57029958e-07
2.00247206e-09
6.56700104e-07
2.32895786e-09
6.5633486e-07
2.5943301e-09
6.55949547e-07
2.79274099e-09
6.55556555e-07
2.93339958e-09
6.55163278e-07
3.03473938e-09
6.54771901e-07
3.11702042e-09
6.54380705e-07
3.19613378e-09
6.5398607e-07
3.28048942e-09
6.53584325e-07
3.37128219e-09
6.53172879e-07
3.46504296e-09
6.52750522e-07
3.55677366e-09
6.52317129e-07
3.64226629e-09
6.51873164e-07
3.71902631e-09
6.51419264e-07
3.7860318e-09
6.50956061e-07
3.84296721e-09
6.50484185e-07
3.88952544e-09
6.50004378e-07
3.92506926e-09
6.4951759e-07
3.94863454e-09
6.49025035e-07
3.9591055e-09
6.48528204e-07
3.95539263e-09
6.48028841e-07
3.93653324e-09
6.4752892e-07
3.90171562e-09
6.47030624e-07
3.85026626e-09
6.46536324e-07
3.78163494e-09
6.4604856e-07
3.695391e-09
6.45570013e-07
3.59122754e-09
6.45103483e-07
3.46897268e-09
6.44651853e-07
3.32860009e-09
6.44218065e-07
3.17022922e-09
6.43805104e-07
2.99413468e-09
6.43415983e-07
2.80074709e-09
6.43053751e-07
2.5906464e-09
6.42721493e-07
2.36455942e-09
6.42422337e-07
2.12334431e-09
6.42159457e-07
1.86796429e-09
6.41936084e-07
1.59942829e-09
6.41755682e-07
1.31861092e-09
6.41621282e-07
1.02688073e-09
6.4153487e-07
7.25805127e-10
6.41497387e-07
4.16677933e-10
6.41507366e-07
1.02398788e-10
6.41576241e-07
-2.18203869e-10
6.41704671e-07
-5.40270218e-10
6.4189311e-07
-8.64600045e-10
6.4214152e-07
-1.18933834e-09
6.42449858e-07
-1.51257346e-09
6.42817806e-07
-1.8323988e-09
6.43244507e-07
-2.14665822e-09
6.43728546e-07
-2.45305864e-09
6.44267945e-07
-2.74924566e-09
6.44860156e-07
-3.0328176e-09
6.45502089e-07
-3.30135311e-09
6.46190156e-07
-3.55247278e-09
6.46920329e-07
-3.78390142e-09
6.4768819e-07
-3.99354507e-09
6.48488983e-07
-4.17956202e-09
6.49317659e-07
-4.3404167e-09
6.50168935e-07
-4.47493042e-09
6.51037358e-07
-4.58230982e-09
6.51917381e-07
-4.66215263e-09
6.52803446e-07
-4.71445491e-09
6.53690074e-07
-4.73960094e-09
6.5457195e-07
-4.73833638e-09
6.55444e-07
-4.71174849e-09
6.56301462e-07
-4.66122575e-09
6.57139942e-07
-4.5884207e-09
6.57955457e-07
-4.49519419e-09
6.58744471e-07
-4.38357743e-09
6.59503911e-07
-4.25570926e-09
6.60231178e-07
-4.11379489e-09
6.60924144e-07
-3.96005419e-09
6.61581143e-07
-3.79668272e-09
6.62200943e-07
-3.62580684e-09
6.62782719e-07
-3.44945699e-09
6.63326009e-07
-3.26953776e-09
6.63830648e-07
-3.08779219e-09
6.64296659e-07
-2.90576882e-09
6.64724556e-07
-2.72473877e-09
6.65115428e-07
-2.54576106e-09
6.65470537e-07
-2.36983259e-09
6.65791281e-07
-2.19786144e-09
6.66079155e-07
-2.0306305e-09
6.66335725e-07
-1.86879318e-09
6.66562602e-07
-1.71287199e-09
6.66761402e-07
-1.5632587e-09
6.66933712e-07
-1.42021052e-09
6.67081161e-07
-1.28395791e-09
6.67205417e-07
-1.15461107e-09
6.6730814e-07
-1.03215468e-09
6.67390968e-07
-9.16504858e-10
6.67455498e-07
-8.07528812e-10
6.67503273e-07
-7.0505571e-10
6.67535774e-07
-6.08886329e-10
6.67554411e-07
-5.1879595e-10
6.67560509e-07
-4.34525163e-10
6.67555313e-07
-3.55768584e-10
6.6754005e-07
-2.82205524e-10
6.67516065e-07
-2.13554474e-10
6.67485008e-07
-1.49675657e-10
6.67448967e-07
-9.07365004e-11
6.67410327e-07
-3.73640827e-11
6.67370057e-07
1.06149372e-11
6.67323804e-07
5.55874454e-11
6.6726959e-07
9.28718694e-11
6.67209278e-07
1.24981682e-10
6.67143974e-07
1.53233007e-10
6.67074598e-07
1.78266268e-10
6.67001948e-07
2.0049824e-10
6.66926736e-07
2.20260567e-10
6.66849611e-07
2.37807156e-10
6.66771147e-07
2.53345899e-10
6.66691841e-07
2.67052152e-10
6.66612106e-07
2.79061503e-10
6.66532279e-07
2.8947682e-10
6.66452622e-07
2.98385163e-10
6.66373345e-07
3.05868745e-10
6.66294612e-07
3.12009181e-10
6.6621656e-07
3.16890052e-10
6.66139308e-07
3.2059787e-10
6.66062968e-07
3.23221234e-10
6.6598764e-07
3.24849748e-10
6.65913424e-07
3.25571461e-10
6.65840413e-07
3.25471115e-10
6.65768699e-07
3.24627837e-10
6.65698364e-07
3.23114709e-10
6.65629484e-07
3.20997183e-10
6.65562128e-07
3.18333546e-10
6.65496353e-07
3.15174933e-10
6.6543221e-07
3.11566367e-10
6.65369738e-07
3.07547147e-10
6.65308967e-07
3.03152392e-10
6.65249921e-07
2.98414057e-10
6.65192615e-07
2.93361369e-10
6.65137061e-07
2.88022019e-10
6.65083264e-07
2.82422629e-10
6.6503123e-07
2.76588561e-10
6.64980962e-07
2.70544412e-10
6.64932461e-07
2.64313873e-10
6.64885731e-07
2.5791909e-10
6.64840774e-07
2.51380863e-10
6.64797595e-07
2.44718092e-10
6.647562e-07
2.37947815e-10
6.64716594e-07
2.31084531e-10
6.64678786e-07
2.24140559e-10
6.64642787e-07
2.17124691e-10
6.64608611e-07
2.10045252e-10
6.64576284e-07
2.02890005e-10
6.64545828e-07
1.95708295e-10
6.64517356e-07
1.8819929e-10
6.6449076e-07
1.81569983e-10
1.69576375e-10
6.66617093e-07
1.9683235e-10
6.66449706e-07
6.0279481e-10
6.66174206e-07
9.78896566e-10
6.65807503e-07
1.29481833e-09
6.65372832e-07
1.52375242e-09
6.64898225e-07
1.64680655e-09
6.64412702e-07
1.65983019e-09
6.63942859e-07
1.57264041e-09
6.63511852e-07
1.40020942e-09
6.63139882e-07
1.1559972e-09
6.62843598e-07
8.54450151e-10
6.62632216e-07
5.19567959e-10
6.62496012e-07
1.91054673e-10
6.62445922e-07
-8.74463157e-11
6.62455225e-07
-2.59857845e-10
6.62483892e-07
-2.78594963e-10
6.6248686e-07
-1.34130729e-10
6.62435744e-07
1.45858832e-10
6.62314879e-07
5.16491131e-10
6.6209964e-07
9.35111509e-10
6.61791054e-07
1.34757504e-09
6.61401661e-07
1.70909046e-09
6.60952099e-07
1.9849691e-09
6.60468237e-07
2.15431748e-09
6.59977251e-07
2.20978176e-09
6.59504898e-07
2.15474482e-09
6.59074098e-07
2.00101414e-09
6.58703966e-07
1.76754309e-09
6.5840867e-07
1.48012803e-09
6.58195884e-07
1.17163799e-09
6.58064957e-07
8.81509441e-10
6.58005494e-07
6.52964176e-10
6.57997214e-07
5.27218248e-10
6.58011611e-07
5.35481724e-10
6.58015241e-07
6.90867868e-10
6.5797553e-07
9.83233882e-10
6.57867064e-07
1.37921568e-09
6.57676376e-07
1.82854134e-09
6.57403866e-07
2.27527343e-09
6.57062311e-07
2.67081694e-09
6.56672379e-07
2.98457539e-09
6.56256615e-07
3.20882522e-09
6.55833819e-07
3.3565186e-09
6.55415504e-07
3.45337382e-09
6.55005198e-07
3.52764135e-09
6.54600202e-07
3.6014386e-09
6.54194649e-07
3.68634606e-09
6.53782466e-07
3.78376599e-09
6.53359268e-07
3.88854228e-09
6.5292291e-07
3.99343516e-09
6.52473045e-07
4.09243961e-09
6.52010287e-07
4.1820999e-09
6.51535501e-07
4.26114105e-09
6.51049465e-07
4.32933651e-09
6.5055286e-07
4.38647522e-09
6.5004643e-07
4.43185474e-09
6.49531153e-07
4.46427791e-09
6.49008331e-07
4.4823047e-09
6.48479601e-07
4.48451031e-09
6.479469e-07
4.46963073e-09
6.47412422e-07
4.43659624e-09
6.46878586e-07
4.38451046e-09
6.46348007e-07
4.31262446e-09
6.45823478e-07
4.22033069e-09
6.45307945e-07
4.10716881e-09
6.4480448e-07
3.97283966e-09
6.44316257e-07
3.8172165e-09
6.43846525e-07
3.64034255e-09
6.43398586e-07
3.44243789e-09
6.42975781e-07
3.22389711e-09
6.42581469e-07
2.98527959e-09
6.42219015e-07
2.72730661e-09
6.41891775e-07
2.45084701e-09
6.41603071e-07
2.15689513e-09
6.41356124e-07
1.84656155e-09
6.41153803e-07
1.52107454e-09
6.40998955e-07
1.18181587e-09
6.40894544e-07
8.30231204e-10
6.40843899e-07
4.67274607e-10
6.4085271e-07
9.3528836e-11
6.40918632e-07
-2.84273028e-10
6.41045915e-07
-6.67758455e-10
6.4123557e-07
-1.05455387e-09
6.41488718e-07
-1.44285933e-09
6.41805842e-07
-1.83014723e-09
6.42186772e-07
-2.21386156e-09
6.42630803e-07
-2.59130735e-09
6.43136638e-07
-2.95959859e-09
6.43702338e-07
-3.31573581e-09
6.44325314e-07
-3.65666992e-09
6.45002353e-07
-3.97935033e-09
6.45729643e-07
-4.28079996e-09
6.46502819e-07
-4.55818851e-09
6.47317013e-07
-4.80891927e-09
6.48166919e-07
-5.03070781e-09
6.49046853e-07
-5.22164376e-09
6.49950839e-07
-5.38025394e-09
6.50872701e-07
-5.50554257e-09
6.5180616e-07
-5.59700544e-09
6.52744942e-07
-5.65464407e-09
6.53682887e-07
-5.678956e-09
6.54614051e-07
-5.67090154e-09
6.55532795e-07
-5.63187613e-09
6.5643387e-07
-5.56365641e-09
6.5731248e-07
-5.46834915e-09
6.58164329e-07
-5.3483182e-09
6.58985661e-07
-5.2061328e-09
6.59773273e-07
-5.04448735e-09
6.6052452e-07
-4.8661473e-09
6.6123731e-07
-4.67388352e-09
6.61910079e-07
-4.47042258e-09
6.6254176e-07
-4.25839069e-09
6.63131749e-07
-4.04027978e-09
6.63679859e-07
-3.81841198e-09
6.64186272e-07
-3.5949035e-09
6.64651517e-07
-3.37164678e-09
6.65076492e-07
-3.15028414e-09
6.65462437e-07
-2.93221481e-09
6.65810813e-07
-2.71865687e-09
6.66123234e-07
-2.51067145e-09
6.66401422e-07
-2.30915188e-09
6.66647176e-07
-2.11482686e-09
6.66862337e-07
-1.9282645e-09
6.67048775e-07
-1.7498847e-09
6.67208389e-07
-1.57997109e-09
6.67343027e-07
-1.41869943e-09
6.67454485e-07
-1.26612918e-09
6.67544526e-07
-1.12221121e-09
6.67614866e-07
-9.86816356e-10
6.67667167e-07
-8.59755878e-10
6.67703024e-07
-7.40795927e-10
6.67723972e-07
-6.29674117e-10
6.67731498e-07
-5.26122071e-10
6.67727084e-07
-4.29868721e-10
6.67712169e-07
-3.40557591e-10
6.67688146e-07
-2.57811263e-10
6.67656284e-07
-1.81219895e-10
6.67617516e-07
-1.10310345e-10
6.67571817e-07
-4.43145535e-11
6.67518931e-07
1.62281863e-11
6.6746158e-07
6.85376669e-11
6.67401735e-07
1.15904334e-10
6.67337627e-07
1.5742696e-10
6.67269385e-07
1.93669824e-10
6.67197533e-07
2.25524943e-10
6.67122641e-07
2.53589016e-10
6.67045266e-07
2.7829615e-10
6.66965922e-07
3.00016048e-10
6.66885077e-07
3.19051866e-10
6.66803156e-07
3.35652398e-10
6.66720549e-07
3.50027474e-10
6.66637608e-07
3.62352086e-10
6.66554645e-07
3.72771523e-10
6.66471929e-07
3.81413034e-10
6.66389697e-07
3.88396208e-10
6.66308147e-07
3.93837473e-10
6.6622745e-07
3.97851715e-10
6.66147746e-07
4.00551882e-10
6.66069158e-07
4.02047688e-10
6.6599179e-07
4.02445356e-10
6.65915733e-07
4.01846029e-10
6.65841066e-07
4.00345033e-10
6.65767861e-07
3.98030154e-10
6.65696183e-07
3.94982036e-10
6.65626087e-07
3.91273001e-10
6.65557624e-07
3.86968068e-10
6.65490836e-07
3.82125067e-10
6.65425762e-07
3.76795715e-10
6.6536243e-07
3.7102575e-10
6.65300866e-07
3.64856388e-10
6.65241086e-07
3.5832517e-10
6.65183106e-07
3.51466174e-10
6.65126934e-07
3.44311221e-10
6.65072578e-07
3.36890296e-10
6.65020039e-07
3.29231293e-10
6.64969321e-07
3.21360638e-10
6.64920424e-07
3.13303256e-10
6.64873347e-07
3.05081966e-10
6.64828091e-07
2.96717833e-10
6.64784654e-07
2.88229604e-10
6.64743037e-07
2.79633822e-10
6.64703242e-07
2.70944075e-10
6.6466527e-07
2.62171461e-10
6.64629125e-07
2.53323096e-10
6.64594813e-07
2.44405865e-10
6.64562344e-07
2.35404515e-10
6.64531704e-07
2.26382413e-10
6.64502945e-07
2.17003597e-10
6.64475625e-07
2.08857254e-10
1.94430489e-10
6.66605954e-07
2.57082029e-10
6.66432969e-07
7.75429624e-10
6.66155496e-07
1.25580309e-09
6.65790422e-07
1.65903854e-09
6.65360459e-07
1.95271676e-09
6.64892038e-07
2.11420514e-09
6.64412586e-07
2.13826251e-09
6.63947573e-07
2.03662616e-09
6.63519279e-07
1.82746416e-09
6.63147095e-07
1.52713167e-09
6.62847342e-07
1.15312174e-09
6.62631564e-07
7.34190276e-10
6.62504131e-07
3.17259257e-10
6.6244451e-07
-3.13246131e-11
6.6242565e-07
-2.43044061e-10
6.62426646e-07
-2.81570158e-10
6.62421089e-07
-1.30658711e-10
6.62371446e-07
1.94061878e-10
6.62244075e-07
6.43006859e-10
6.62029695e-07
1.14885595e-09
6.61728222e-07
1.64849858e-09
6.61351248e-07
2.08558461e-09
6.60917529e-07
2.41825951e-09
6.60450111e-07
2.6213397e-09
6.59973913e-07
2.68559492e-09
6.59513387e-07
2.61488494e-09
6.59090855e-07
2.42315595e-09
6.58725325e-07
2.13267939e-09
6.58431236e-07
1.77382488e-09
6.58216839e-07
1.38565081e-09
6.58082349e-07
1.01563036e-09
6.58018407e-07
7.16549755e-10
6.58005674e-07
5.39598844e-10
6.5801638e-07
5.24415586e-10
6.58018293e-07
6.88581119e-10
6.5798031e-07
1.02081795e-09
6.57877965e-07
1.48112339e-09
6.57697678e-07
2.00834386e-09
6.57438624e-07
2.53379093e-09
6.57111616e-07
2.99723643e-09
6.56735246e-07
3.36030869e-09
6.56330453e-07
3.61293634e-09
6.55915259e-07
3.77099159e-09
6.55501246e-07
3.86663218e-09
6.55092595e-07
3.93550525e-09
6.54687481e-07
4.00573697e-09
6.5428078e-07
4.09220401e-09
6.53866839e-07
4.19683868e-09
6.53441343e-07
4.313144e-09
6.5300198e-07
4.43188179e-09
6.52548136e-07
4.54534609e-09
6.52080184e-07
4.64909587e-09
6.51598835e-07
4.74151915e-09
6.51104799e-07
4.82239014e-09
6.50598752e-07
4.89153066e-09
6.50081472e-07
4.94813824e-09
6.49553986e-07
4.99076498e-09
6.49017661e-07
5.01763296e-09
6.48474216e-07
5.02696533e-09
6.4792569e-07
5.01717569e-09
6.47374407e-07
4.98691338e-09
6.46822933e-07
4.93503716e-09
6.46274051e-07
4.86058191e-09
6.45730735e-07
4.76275082e-09
6.45196116e-07
4.64092369e-09
6.44673452e-07
4.49467486e-09
6.44166095e-07
4.32378645e-09
6.43677451e-07
4.128243e-09
6.43210961e-07
3.90823304e-09
6.42770075e-07
3.664138e-09
6.42358251e-07
3.3965135e-09
6.4197894e-07
3.10608226e-09
6.4163559e-07
2.79372028e-09
6.4133163e-07
2.46044094e-09
6.41070448e-07
2.1073931e-09
6.40855396e-07
1.73584285e-09
6.40689815e-07
1.34718599e-09
6.40576887e-07
9.43028646e-10
6.40518852e-07
5.25253077e-10
6.40515336e-07
9.70352733e-11
6.40573888e-07
-3.42729574e-10
6.40695348e-07
-7.89054985e-10
6.40881577e-07
-1.24053027e-09
6.41133552e-07
-1.69450401e-09
6.4145194e-07
-2.14813003e-09
6.41836867e-07
-2.59830687e-09
6.42287814e-07
-3.04169759e-09
6.42803612e-07
-3.47476643e-09
6.43382414e-07
-3.89383705e-09
6.44021676e-07
-4.29516411e-09
6.44718158e-07
-4.67500011e-09
6.45467938e-07
-5.02968725e-09
6.46266443e-07
-5.35574629e-09
6.47108504e-07
-5.64998213e-09
6.47988419e-07
-5.90958044e-09
6.48900043e-07
-6.13218538e-09
6.49836884e-07
-6.31597988e-09
6.50792221e-07
-6.45973873e-09
6.51759227e-07
-6.56284954e-09
6.52731089e-07
-6.6253315e-09
6.53701137e-07
-6.64782355e-09
6.54662957e-07
-6.63154223e-09
6.55610498e-07
-6.57824421e-09
6.56538157e-07
-6.49015627e-09
6.57440857e-07
-6.36990797e-09
6.58314092e-07
-6.2204381e-09
6.59153972e-07
-6.04492658e-09
6.59957231e-07
-5.8466936e-09
6.60721229e-07
-5.62913037e-09
6.61443938e-07
-5.39561767e-09
6.62123911e-07
-5.14946434e-09
6.62760247e-07
-4.89383986e-09
6.63352541e-07
-4.6317346e-09
6.63900843e-07
-4.36592022e-09
6.64405598e-07
-4.09891297e-09
6.64867611e-07
-3.83296075e-09
6.65288012e-07
-3.57003095e-09
6.65668218e-07
-3.31181192e-09
6.6600987e-07
-3.05974534e-09
6.66314766e-07
-2.8150476e-09
6.66584807e-07
-2.57871576e-09
6.6682196e-07
-2.35154296e-09
6.67028221e-07
-2.13412935e-09
6.67205597e-07
-1.92690116e-09
6.67356076e-07
-1.73012528e-09
6.67481601e-07
-1.54393277e-09
6.67584064e-07
-1.36833308e-09
6.6766531e-07
-1.20322755e-09
6.67727124e-07
-1.04843066e-09
6.67771228e-07
-9.03688122e-10
6.67799268e-07
-7.68691393e-10
6.67812807e-07
-6.43093587e-10
6.67813303e-07
-5.26520954e-10
6.67802083e-07
-4.18574921e-10
6.67780392e-07
-3.18825794e-10
6.67749406e-07
-2.26829156e-10
6.67710241e-07
-1.42127207e-10
6.67664044e-07
-6.42772776e-11
6.67613131e-07
6.31575917e-12
6.67558256e-07
7.08200396e-11
6.67498235e-07
1.2831244e-10
6.67434163e-07
1.79751291e-10
6.67365985e-07
2.25389855e-10
6.67293916e-07
2.65532501e-10
6.67218473e-07
3.00767087e-10
6.67140213e-07
3.3165078e-10
6.67059679e-07
3.58633265e-10
6.6697741e-07
3.82093681e-10
6.66893919e-07
4.02357088e-10
6.6680968e-07
4.19716198e-10
6.667251e-07
4.34443523e-10
6.66640517e-07
4.46784091e-10
6.66556202e-07
4.569484e-10
6.6647237e-07
4.65117426e-10
6.66389198e-07
4.71451217e-10
6.66306832e-07
4.76094524e-10
6.66225401e-07
4.79181084e-10
6.66145019e-07
4.80836561e-10
6.66065794e-07
4.81180609e-10
6.65987822e-07
4.80328079e-10
6.65911195e-07
4.78387877e-10
6.65835994e-07
4.75462844e-10
6.65762296e-07
4.71648174e-10
6.65690169e-07
4.67032487e-10
6.65619671e-07
4.61696427e-10
6.65550855e-07
4.55713516e-10
6.65483762e-07
4.49149917e-10
6.65418427e-07
4.42065437e-10
6.65354877e-07
4.34513411e-10
6.65293131e-07
4.26542078e-10
6.65233204e-07
4.181952e-10
6.65175104e-07
4.09512011e-10
6.65118835e-07
4.0052843e-10
6.65064398e-07
3.91277483e-10
6.65011793e-07
3.81789037e-10
6.64961018e-07
3.72090673e-10
6.64912071e-07
3.62207789e-10
6.64864949e-07
3.52163104e-10
6.6481965e-07
3.41977316e-10
6.64776174e-07
3.31668682e-10
6.64734519e-07
3.21253269e-10
6.64694685e-07
3.10744156e-10
6.64656673e-07
3.00151963e-10
6.64620483e-07
2.8948348e-10
6.64586114e-07
2.78745534e-10
6.64553571e-07
2.67922354e-10
6.64522842e-07
2.57082347e-10
6.64493991e-07
2.45840941e-10
6.64466822e-07
2.35945731e-10
2.18580184e-10
6.66612113e-07
3.11398421e-10
6.66443929e-07
9.43851931e-10
6.66168042e-07
1.53205284e-09
6.65798874e-07
2.02849945e-09
6.65358621e-07
2.39324122e-09
6.64874868e-07
2.5982723e-09
6.64377137e-07
2.63634112e-09
6.63893497e-07
2.52061504e-09
6.63448906e-07
2.27239299e-09
6.6306529e-07
1.91107845e-09
6.62760966e-07
1.45778811e-09
6.62547658e-07
9.47866866e-10
6.62425773e-07
4.39531894e-10
6.62385883e-07
1.00238159e-11
6.62407785e-07
-2.6443715e-10
6.62453515e-07
-3.26821467e-10
6.6248158e-07
-1.58122744e-10
6.62455861e-07
2.20204676e-10
6.62349363e-07
7.49750273e-10
6.62144882e-07
1.3535086e-09
6.61841346e-07
1.95215997e-09
6.61450736e-07
2.47629847e-09
6.60994479e-07
2.87462e-09
6.60499358e-07
3.11657599e-09
6.59994165e-07
3.19092038e-09
6.59507113e-07
3.10209038e-09
6.59063932e-07
2.86651264e-09
6.586864e-07
2.51041108e-09
6.58390833e-07
2.06961214e-09
6.58186268e-07
1.59045181e-09
6.58072476e-07
1.1296743e-09
6.58038432e-07
7.50860636e-10
6.58062275e-07
5.16048349e-10
6.58113445e-07
4.73571656e-10
6.58156464e-07
6.4591611e-10
6.58156217e-07
1.02145021e-09
6.58084476e-07
1.55329154e-09
6.57925297e-07
2.16799702e-09
6.57677411e-07
2.78219976e-09
6.57352918e-07
3.32230331e-09
6.56972778e-07
3.74107213e-09
6.56560609e-07
4.02577884e-09
6.56136741e-07
4.19557966e-09
6.55714286e-07
4.28985056e-09
6.55298071e-07
4.35252447e-09
6.54886169e-07
4.41848186e-09
6.54472893e-07
4.5063573e-09
6.54051865e-07
4.61877544e-09
6.5361811e-07
4.74783763e-09
6.53168818e-07
4.88213709e-09
6.52703063e-07
5.01208678e-09
6.52221038e-07
5.13212549e-09
6.51723353e-07
5.24022477e-09
6.51210656e-07
5.33611752e-09
6.50683595e-07
5.41962948e-09
6.50142948e-07
5.48982562e-09
6.49589786e-07
5.54496634e-09
6.49025563e-07
5.58288966e-09
6.48452131e-07
5.60142118e-09
6.47871704e-07
5.5986122e-09
6.47286809e-07
5.57279918e-09
6.46700242e-07
5.52257251e-09
6.4611503e-07
5.44673499e-09
6.45534399e-07
5.34429017e-09
6.44961746e-07
5.2144499e-09
6.44400602e-07
5.05665224e-09
6.43854605e-07
4.87057337e-09
6.43327473e-07
4.65611875e-09
6.42822975e-07
4.41342417e-09
6.4234491e-07
4.14284502e-09
6.41897074e-07
3.84493782e-09
6.41483236e-07
3.52045337e-09
6.41107113e-07
3.17031995e-09
6.4077235e-07
2.79562174e-09
6.40482507e-07
2.3975923e-09
6.40241033e-07
1.97760942e-09
6.40051245e-07
1.53720021e-09
6.39916371e-07
1.07805764e-09
6.39839678e-07
6.02028413e-10
6.39825519e-07
1.11216912e-10
6.39874864e-07
-3.92142042e-10
6.39990799e-07
-9.05124825e-10
6.40175192e-07
-1.42513274e-09
6.40429627e-07
-1.94922105e-09
6.4075513e-07
-2.47398459e-09
6.41152116e-07
-2.99571327e-09
6.41620339e-07
-3.51040749e-09
6.42158827e-07
-4.013806e-09
6.42765822e-07
-4.50144562e-09
6.43438743e-07
-4.96875563e-09
6.44174168e-07
-5.41115157e-09
6.44967857e-07
-5.82415256e-09
6.4581478e-07
-6.20349402e-09
6.4670919e-07
-6.54525927e-09
6.47644703e-07
-6.845999e-09
6.48614407e-07
-7.10282786e-09
6.49610984e-07
-7.31352372e-09
6.5062685e-07
-7.47659522e-09
6.51654304e-07
-7.59131084e-09
6.52685675e-07
-7.65772304e-09
6.53713479e-07
-7.67665371e-09
6.5473055e-07
-7.64964096e-09
6.55730169e-07
-7.57888826e-09
6.56706171e-07
-7.46717366e-09
6.57653022e-07
-7.31776084e-09
6.58565879e-07
-7.13427994e-09
6.59440628e-07
-6.92063815e-09
6.6027389e-07
-6.68089395e-09
6.61063018e-07
-6.4191693e-09
6.61806071e-07
-6.13954983e-09
6.62501769e-07
-5.84600975e-09
6.63149448e-07
-5.54233243e-09
6.63749e-07
-5.23206444e-09
6.64300811e-07
-4.91847199e-09
6.64805696e-07
-4.60450311e-09
6.65264846e-07
-4.29277834e-09
6.65679768e-07
-3.98558393e-09
6.66052234e-07
-3.68487242e-09
6.66384218e-07
-3.39228796e-09
6.66677834e-07
-3.1091875e-09
6.66935283e-07
-2.8366561e-09
6.67158816e-07
-2.57553292e-09
6.6735069e-07
-2.32642937e-09
6.67513148e-07
-2.08975464e-09
6.67648391e-07
-1.86573493e-09
6.6775856e-07
-1.65444022e-09
6.67845718e-07
-1.45580454e-09
6.67911846e-07
-1.26964376e-09
6.67958829e-07
-1.09567905e-09
6.67988455e-07
-9.33557164e-10
6.68002407e-07
-7.82867937e-10
6.68002269e-07
-6.4316158e-10
6.67989516e-07
-5.13959099e-10
6.67965522e-07
-3.94758578e-10
6.67931577e-07
-2.85052082e-10
6.67888969e-07
-1.84388145e-10
6.6783919e-07
-9.25065572e-11
6.67784208e-07
-9.42547891e-12
6.67722942e-07
6.75831312e-11
6.67657065e-07
1.36740803e-10
6.67586846e-07
1.98588824e-10
6.67512962e-07
2.5369587e-10
6.67435868e-07
3.02542022e-10
6.67355917e-07
3.4553993e-10
6.67273549e-07
3.83192557e-10
6.67189236e-07
4.16020524e-10
6.6710342e-07
4.44507429e-10
6.67016479e-07
4.69091727e-10
6.6692874e-07
4.90151895e-10
6.66840501e-07
5.08005486e-10
6.66752064e-07
5.22925986e-10
6.66663726e-07
5.35160156e-10
6.66575772e-07
5.44935535e-10
6.66488457e-07
5.52462053e-10
6.66402001e-07
5.57933521e-10
6.6631659e-07
5.61530454e-10
6.66232375e-07
5.63421337e-10
6.66149477e-07
5.63760117e-10
6.66067994e-07
5.6268862e-10
6.6598801e-07
5.60338525e-10
6.65909594e-07
5.568319e-10
6.65832802e-07
5.52282305e-10
6.65757686e-07
5.46793645e-10
6.65684286e-07
5.40461608e-10
6.65612638e-07
5.33372572e-10
6.65542776e-07
5.25605174e-10
6.65474724e-07
5.17230312e-10
6.65408506e-07
5.08312287e-10
6.65344138e-07
4.98908544e-10
6.65281637e-07
4.89071171e-10
6.65221011e-07
4.78847547e-10
6.65162269e-07
4.68280214e-10
6.65105415e-07
4.57408187e-10
6.6505045e-07
4.46267326e-10
6.64997374e-07
4.34889936e-10
6.64946184e-07
4.23305671e-10
6.64896874e-07
4.11541612e-10
6.64849439e-07
3.99621665e-10
6.64803872e-07
3.87567294e-10
6.64760167e-07
3.75397058e-10
6.64718316e-07
3.63126993e-10
6.64678312e-07
3.50769851e-10
6.6464015e-07
3.38335915e-10
6.64603823e-07
3.25831636e-10
6.64569324e-07
3.13264476e-10
6.6453665e-07
3.00617879e-10
6.64505771e-07
2.87976883e-10
6.64476719e-07
2.74922514e-10
6.64449063e-07
2.63558039e-10
2.4386921e-10
6.66611142e-07
3.6658408e-10
6.66441617e-07
1.11351277e-09
6.6616377e-07
1.81004279e-09
6.65792471e-07
2.39976843e-09
6.65350145e-07
2.83544853e-09
6.64864328e-07
3.0839827e-09
6.64364269e-07
3.13632432e-09
6.6387772e-07
3.00709941e-09
6.63429513e-07
2.72054263e-09
6.630414e-07
2.29914702e-09
6.62731362e-07
1.76779739e-09
6.62511669e-07
1.16753771e-09
6.62384472e-07
5.66699651e-10
6.62339766e-07
5.47588353e-11
6.62356285e-07
-2.80831853e-10
6.62396843e-07
-3.67229638e-10
6.62421772e-07
-1.8292772e-10
6.62396383e-07
2.45628158e-10
6.62292715e-07
8.53418841e-10
6.62094455e-07
1.55177158e-09
6.61799699e-07
2.24691595e-09
6.61418807e-07
2.85717213e-09
6.60971648e-07
3.32173494e-09
6.6048404e-07
3.60411395e-09
6.59984329e-07
3.69053949e-09
6.59500668e-07
3.58564116e-09
6.5905906e-07
3.30799616e-09
6.58681845e-07
2.88748983e-09
6.58386156e-07
2.36515379e-09
6.58182044e-07
1.79440669e-09
6.58070409e-07
1.24114008e-09
6.58041354e-07
7.79726839e-10
6.58073711e-07
4.83470257e-10
6.58136347e-07
4.10672262e-10
6.58192504e-07
5.89465622e-10
6.58206523e-07
1.00711274e-09
6.5814995e-07
1.60951163e-09
6.58006318e-07
2.31123844e-09
6.57773467e-07
3.01462057e-09
6.57462543e-07
3.63275608e-09
6.57093838e-07
4.10926423e-09
6.56690747e-07
4.42831828e-09
6.56273766e-07
4.61196805e-09
6.55856377e-07
4.70660945e-09
6.55443756e-07
4.7644801e-09
6.55034157e-07
4.82738043e-09
6.54621874e-07
4.91790711e-09
6.54200356e-07
5.0395327e-09
6.53764378e-07
5.18302797e-09
6.5331089e-07
5.33481484e-09
6.52838766e-07
5.48338147e-09
6.52348052e-07
5.62199287e-09
6.51839261e-07
5.74815714e-09
6.51312983e-07
5.86152755e-09
6.5076984e-07
5.96189856e-09
6.50210626e-07
6.04816501e-09
6.49636465e-07
6.11825349e-09
6.49048913e-07
6.16957282e-09
6.48449969e-07
6.19950559e-09
6.47842037e-07
6.20569722e-09
6.47227875e-07
6.18613075e-09
6.46610546e-07
6.13909135e-09
6.45993376e-07
6.06311756e-09
6.45379918e-07
5.95698793e-09
6.44773906e-07
5.81973193e-09
6.4417921e-07
5.65065332e-09
6.43599779e-07
5.44934516e-09
6.43039601e-07
5.21567735e-09
6.42502659e-07
4.94978914e-09
6.41992905e-07
4.65206408e-09
6.41514255e-07
4.3230958e-09
6.41070589e-07
3.96367193e-09
6.40665751e-07
3.57475453e-09
6.40303553e-07
3.15746277e-09
6.3998776e-07
2.7130764e-09
6.39722072e-07
2.24303678e-09
6.39510113e-07
1.74895095e-09
6.39355393e-07
1.23262276e-09
6.39261251e-07
6.96070441e-10
6.39230246e-07
1.42173492e-10
6.39266505e-07
-4.28384397e-10
6.39372575e-07
-1.01112559e-09
6.39550974e-07
-1.60340708e-09
6.39803632e-07
-2.20169957e-09
6.40131944e-07
-2.80206561e-09
6.40536675e-07
-3.40016487e-09
6.41017868e-07
-3.99127393e-09
6.41574766e-07
-4.57033341e-09
6.42205743e-07
-5.13201244e-09
6.42908252e-07
-5.67081642e-09
6.43678787e-07
-6.18120276e-09
6.44512876e-07
-6.65772671e-09
6.45405112e-07
-7.09518429e-09
6.46349205e-07
-7.48877986e-09
6.47338083e-07
-7.83428083e-09
6.48364018e-07
-8.12814537e-09
6.49418782e-07
-8.36765068e-09
6.5049382e-07
-8.55098085e-09
6.51580441e-07
-8.67726579e-09
6.52670003e-07
-8.74660953e-09
6.53754102e-07
-8.76006924e-09
6.54824736e-07
-8.71958615e-09
6.55874453e-07
-8.62791558e-09
6.56896478e-07
-8.48850922e-09
6.57884802e-07
-8.30539821e-09
6.58834243e-07
-8.08304169e-09
6.59740487e-07
-7.82621019e-09
6.60600084e-07
-7.53982958e-09
6.61410434e-07
-7.2288706e-09
6.62169746e-07
-6.89822735e-09
6.62876981e-07
-6.55262698e-09
6.63531785e-07
-6.19653715e-09
6.64134415e-07
-5.83411409e-09
6.64685659e-07
-5.46915556e-09
6.65186757e-07
-5.10506241e-09
6.65639329e-07
-4.74483315e-09
6.66045301e-07
-4.39106141e-09
6.66406839e-07
-4.04593947e-09
6.66726287e-07
-3.71128629e-09
6.67006097e-07
-3.3885725e-09
6.67248788e-07
-3.07894305e-09
6.67456888e-07
-2.78325258e-09
6.67632909e-07
-2.50209131e-09
6.6777931e-07
-2.23581789e-09
6.67898477e-07
-1.984585e-09
6.67992707e-07
-1.74837265e-09
6.68064196e-07
-1.52701518e-09
6.68115037e-07
-1.32022443e-09
6.68147217e-07
-1.12761593e-09
6.68162618e-07
-9.48728938e-10
6.68163008e-07
-7.83043133e-10
6.68150049e-07
-6.29997848e-10
6.68125296e-07
-4.89009152e-10
6.68090217e-07
-3.59483592e-10
6.68046173e-07
-2.40802806e-10
6.67994178e-07
-1.32162053e-10
6.67934335e-07
-3.24124396e-11
6.67867934e-07
5.71508186e-11
6.6779758e-07
1.37996366e-10
6.67723255e-07
2.11102434e-10
6.67645339e-07
2.76532575e-10
6.67564318e-07
3.34739241e-10
6.67480626e-07
3.86251005e-10
6.67394625e-07
4.31552455e-10
6.67306685e-07
4.71141654e-10
6.67217192e-07
5.05519042e-10
6.67126548e-07
5.35153722e-10
6.67035166e-07
5.60473229e-10
6.66943448e-07
5.81868147e-10
6.66851751e-07
5.99700517e-10
6.66760369e-07
6.14306634e-10
6.66669538e-07
6.25991122e-10
6.66579449e-07
6.35022826e-10
6.66490271e-07
6.41638246e-10
6.6640215e-07
6.46051458e-10
6.66315215e-07
6.48459898e-10
6.66229583e-07
6.49044898e-10
6.6614536e-07
6.47973479e-10
6.66062636e-07
6.45399833e-10
6.65981493e-07
6.41467579e-10
6.65901999e-07
6.36309309e-10
6.65824216e-07
6.30047556e-10
6.65748197e-07
6.22794189e-10
6.65673986e-07
6.1465262e-10
6.65601621e-07
6.05716667e-10
6.65531133e-07
5.96072201e-10
6.65462545e-07
5.85796994e-10
6.65395874e-07
5.74961867e-10
6.65331131e-07
5.6363023e-10
6.65268321e-07
5.51859547e-10
6.65207446e-07
5.39701823e-10
6.65148502e-07
5.27203254e-10
6.65091483e-07
5.1440559e-10
6.65036383e-07
5.01346561e-10
6.64983193e-07
4.88059521e-10
6.64931903e-07
4.74574618e-10
6.64882505e-07
4.60919042e-10
6.6483499e-07
4.471165e-10
6.64789349e-07
4.33188172e-10
6.64745573e-07
4.19152311e-10
6.64703655e-07
4.05024744e-10
6.64663587e-07
3.90818091e-10
6.6462536e-07
3.76542672e-10
6.64588967e-07
3.62205321e-10
6.64554398e-07
3.47814122e-10
6.64521645e-07
3.33352911e-10
6.64490688e-07
3.18910249e-10
6.64461585e-07
3.04018039e-10
6.64434141e-07
2.90923755e-10
2.6826896e-10
6.66610855e-07
4.22150464e-10
6.66440407e-07
1.28409488e-09
6.66160183e-07
2.09043175e-09
6.65784107e-07
2.775869e-09
6.65334173e-07
3.28534202e-09
6.6483834e-07
3.57979375e-09
6.64326977e-07
3.64768802e-09
6.63829272e-07
3.50479856e-09
6.63371489e-07
3.17830214e-09
6.62976751e-07
2.69384571e-09
6.62664399e-07
2.08009802e-09
6.62447717e-07
1.38415864e-09
6.62329669e-07
6.84682484e-10
6.62300607e-07
8.3712168e-11
6.62329423e-07
-3.09829392e-10
6.62384895e-07
-4.22888936e-10
6.62426343e-07
-2.24554131e-10
6.62414185e-07
2.57690478e-10
6.62318671e-07
9.48883489e-10
6.62123521e-07