/*--------------------------------*- C++ -*----------------------------------*\
| =========                 |                                                 |
| \\      /  F ield         | OpenFOAM: The Open Source CFD Toolbox           |
|  \\    /   O peration     | Version:  v2012                                 |
|   \\  /    A nd           | Website:  www.openfoam.com                      |
|    \\/     M anipulation  |                                                 |
\*---------------------------------------------------------------------------*/
FoamFile
{
    version     2.0;
    format      ascii;
    class       volScalarField;
    location    "2.34";
    object      rAU;
}
// * * * * * * * * * * * * * * * * * * * * * * * * * * * * * * * * * * * * * //

dimensions      [0 0 1 0 0 0 0];


internalField   nonuniform List<scalar> 
28416
(
0.000706751754
0.000706763101
0.000706761144
0.00070676108
0.000706763103
0.000706767222
0.000706773184
0.000706780535
0.000706788759
0.0007067974
0.000706805994
0.000706813973
0.000706819281
0.00070681898
0.000706818693
0.000706819558
0.000706821787
0.000706823621
0.000706818996
0.000706814771
0.000706811572
0.000706809976
0.000706810367
0.000706812867
0.000706817376
0.000706823607
0.000706831135
0.000706839419
0.000706847836
0.0007068557
0.000706862317
0.000706867046
0.000706869397
0.00070686912
0.000706866398
0.000706861758
0.000706856019
0.000706850163
0.000706845128
0.000706841615
0.000706839954
0.000706840086
0.000706841646
0.000706844126
0.000706847041
0.000706850055
0.000706853023
0.000706855966
0.000706858992
0.00070686223
0.000706865774
0.000706869675
0.00070687395
0.000706878597
0.000706883618
0.000706889016
0.000706894804
0.000706900989
0.000706907578
0.000706914569
0.000706921955
0.000706929723
0.000706937853
0.000706946322
0.0007069551
0.000706964153
0.000706973448
0.000706982938
0.000706992578
0.00070700232
0.000707012105
0.000707021874
0.000707031569
0.000707041117
0.000707050451
0.000707059504
0.000707068202
0.000707076494
0.000707084351
0.000707091743
0.000707091555
0.000707086483
0.000707080607
0.00070707395
0.000707066535
0.000707058391
0.000707049544
0.000707040042
0.000707029929
0.000707019263
0.000707008108
0.000706996539
0.000706984627
0.000706972452
0.000706960099
0.000706947645
0.000706935172
0.000706922761
0.000706910485
0.000706898416
0.000706886624
0.000706875166
0.000706864098
0.000706853467
0.000706843317
0.000706833675
0.000706824572
0.000706816021
0.000706808035
0.000706800618
0.000706793772
0.000706787487
0.000706781753
0.000706776561
0.000706771888
0.000706767718
0.000706764037
0.000706760821
0.000706758044
0.00070675568
0.000706753698
0.000706752072
0.000706750772
0.000706749777
0.000706749059
0.000706748594
0.000706748365
0.000706748344
0.000706748512
0.000706748854
0.000706749348
0.000706749974
0.000706750723
0.000706751574
0.000706752514
0.000706753536
0.000706754623
0.00070675576
0.000706756927
0.000706758084
0.000706759054
0.000706759313
0.000706759158
0.000706759187
0.000706759369
0.000706759673
0.000706760081
0.000706760576
0.000706761147
0.000706761779
0.000706762461
0.000706763189
0.000706763955
0.000706764752
0.000706765582
0.000706766435
0.000706767309
0.000706768204
0.000706769113
0.000706770033
0.000706770959
0.000706771893
0.000706772825
0.000706773758
0.000706774685
0.000706775606
0.000706776518
0.000706777421
0.000706778312
0.000706779189
0.000706780055
0.000706780905
0.000706781738
0.000706782558
0.000706783359
0.000706784142
0.000706784909
0.000706785657
0.000706786385
0.000706787091
0.000706787781
0.000706788448
0.000706789092
0.000706789717
0.000706790319
0.000706790897
0.000706791454
0.000706791992
0.00070679248
0.00070680796
0.000706740575
0.000706752412
0.000706751139
0.000706751822
0.000706754507
0.00070675908
0.000706765212
0.000706772432
0.000706780245
0.000706788221
0.000706795952
0.000706803014
0.000706809013
0.000706810226
0.000706808657
0.000706808315
0.000706809839
0.000706810272
0.000706807037
0.000706804414
0.000706803087
0.000706803471
0.000706805742
0.000706809832
0.000706815487
0.000706822326
0.000706829898
0.00070683771
0.000706845247
0.000706851982
0.000706857414
0.000706861119
0.000706862829
0.000706862511
0.000706860434
0.000706857152
0.00070685343
0.000706850091
0.000706847853
0.000706847175
0.000706848181
0.000706850677
0.000706854249
0.000706858416
0.000706862766
0.000706867052
0.000706871202
0.000706875277
0.000706879401
0.000706883695
0.000706888241
0.000706893075
0.000706898203
0.000706903616
0.000706909309
0.000706915283
0.000706921538
0.000706928078
0.000706934899
0.000706941992
0.000706949344
0.000706956934
0.000706964738
0.000706972728
0.000706980871
0.00070698913
0.00070699747
0.000707005844
0.000707014207
0.000707022513
0.000707030709
0.000707038741
0.000707046558
0.000707054101
0.000707061314
0.000707068146
0.000707074541
0.000707080439
0.000707085791
0.00070709051
0.000707087922
0.000707082093
0.000707075424
0.000707067928
0.000707059622
0.000707050537
0.000707040705
0.000707030178
0.000707019007
0.000707007259
0.000706995006
0.000706982331
0.000706969318
0.000706956055
0.000706942641
0.000706929164
0.000706915717
0.000706902394
0.000706889277
0.000706876449
0.000706863987
0.000706851954
0.000706840411
0.000706829407
0.000706818985
0.000706809172
0.000706799995
0.000706791464
0.000706783586
0.000706776357
0.000706769774
0.000706763818
0.000706758471
0.000706753715
0.00070674952
0.00070674586
0.000706742711
0.000706740039
0.000706737811
0.000706736
0.000706734569
0.000706733488
0.000706732724
0.000706732252
0.000706732041
0.000706732063
0.000706732299
0.000706732721
0.000706733308
0.000706734045
0.000706734909
0.000706735882
0.000706736954
0.000706738103
0.000706739314
0.00070674058
0.000706741882
0.000706743209
0.000706744566
0.000706745725
0.000706746261
0.000706746422
0.000706746717
0.000706747131
0.000706747651
0.000706748258
0.000706748941
0.000706749686
0.000706750488
0.000706751333
0.000706752215
0.000706753131
0.00070675407
0.000706755027
0.000706756002
0.000706756987
0.000706757978
0.000706758976
0.000706759974
0.00070676097
0.00070676196
0.000706762947
0.000706763923
0.000706764891
0.000706765846
0.000706766788
0.000706767713
0.000706768626
0.00070676952
0.000706770395
0.000706771254
0.000706772093
0.000706772911
0.000706773712
0.00070677449
0.000706775247
0.000706775985
0.000706776701
0.000706777394
0.000706778064
0.000706778716
0.000706779343
0.000706779946
0.000706780529
0.000706781089
0.000706781624
0.000706782138
0.000706782632
0.000706783088
0.000706798501
0.000706739921
0.000706750373
0.000706747774
0.000706747307
0.000706749096
0.000706753095
0.00070675901
0.000706766358
0.000706774614
0.000706783322
0.000706792038
0.000706800245
0.000706807272
0.000706810883
0.000706808918
0.00070680869
0.000706810661
0.000706810453
0.000706806293
0.000706802532
0.000706799985
0.000706799233
0.000706800567
0.000706804012
0.000706809367
0.000706816259
0.00070682422
0.000706832713
0.000706841162
0.00070684895
0.000706855462
0.000706860136
0.000706862562
0.000706862591
0.000706860416
0.000706856591
0.000706851952
0.000706847468
0.000706844036
0.000706842293
0.000706842489
0.000706844478
0.00070684782
0.000706851948
0.000706856347
0.00070686068
0.000706864823
0.000706868826
0.000706872829
0.000706876983
0.000706881393
0.000706886112
0.000706891151
0.000706896504
0.000706902164
0.000706908133
0.000706914414
0.000706921015
0.000706927934
0.000706935168
0.000706942701
0.000706950518
0.000706958592
0.000706966898
0.000706975402
0.000706984065
0.000706992851
0.000707001713
0.000707010603
0.000707019475
0.000707028275
0.000707036946
0.000707045439
0.00070705369
0.000707061641
0.000707069236
0.000707076411
0.000707083102
0.000707089261
0.000707094847
0.000707091527
0.000707084977
0.000707077544
0.000707069241
0.000707060089
0.000707050126
0.000707039386
0.000707027929
0.000707015814
0.000707003113
0.000706989908
0.000706976292
0.000706962356
0.000706948203
0.000706933938
0.000706919663
0.00070690548
0.000706891494
0.000706877794
0.00070686447
0.000706851605
0.000706839265
0.000706827512
0.000706816393
0.000706805952
0.00070679621
0.00070678719
0.000706778894
0.000706771322
0.000706764464
0.000706758306
0.000706752823
0.000706747986
0.00070674377
0.000706740137
0.000706737051
0.000706734483
0.00070673239
0.000706730735
0.000706729487
0.000706728604
0.000706728053
0.0007067278
0.000706727817
0.000706728071
0.000706728534
0.000706729186
0.000706729999
0.000706730951
0.000706732027
0.000706733204
0.000706734466
0.000706735802
0.000706737193
0.000706738628
0.000706740102
0.000706741599
0.000706743112
0.000706744533
0.000706744977
0.000706745011
0.000706745175
0.000706745469
0.000706745882
0.000706746405
0.00070674702
0.000706747713
0.000706748474
0.000706749294
0.00070675016
0.000706751063
0.000706752
0.00070675296
0.000706753938
0.000706754934
0.00070675594
0.000706756952
0.000706757973
0.000706758994
0.000706760014
0.000706761029
0.000706762041
0.000706763043
0.000706764037
0.000706765019
0.000706765987
0.000706766938
0.000706767877
0.000706768797
0.000706769697
0.000706770582
0.000706771446
0.000706772289
0.000706773114
0.000706773918
0.000706774699
0.000706775461
0.000706776201
0.000706776919
0.000706777613
0.000706778288
0.00070677894
0.000706779567
0.000706780175
0.000706780758
0.000706781318
0.000706781857
0.000706782375
0.000706782853
0.000706798295
0.000706739119
0.000706748034
0.000706744023
0.000706742408
0.000706743416
0.000706747055
0.00070675303
0.000706760806
0.000706769782
0.000706779429
0.000706789232
0.000706798584
0.000706806721
0.000706812331
0.000706809381
0.000706808321
0.000706809948
0.000706809013
0.000706803535
0.000706798377
0.000706794577
0.00070679288
0.000706793661
0.000706796967
0.000706802571
0.000706810045
0.000706818843
0.000706828343
0.000706837872
0.00070684671
0.000706854126
0.000706859442
0.000706862139
0.000706861992
0.000706859174
0.000706854295
0.000706848332
0.000706842443
0.000706837722
0.000706834958
0.000706834487
0.000706836161
0.000706839467
0.000706843723
0.000706848301
0.000706852776
0.000706856986
0.000706860979
0.000706864924
0.000706869005
0.000706873357
0.000706878047
0.000706883096
0.000706888496
0.000706894243
0.000706900339
0.000706906791
0.00070691361
0.000706920799
0.000706928355
0.000706936267
0.000706944517
0.00070695308
0.000706961929
0.000706971029
0.000706980339
0.000706989823
0.000706999428
0.000707009104
0.000707018801
0.000707028458
0.000707038018
0.000707047423
0.000707056609
0.000707065514
0.000707074078
0.000707082236
0.000707089923
0.000707097077
0.000707103611
0.000707099815
0.000707092521
0.000707084272
0.000707075084
0.000707064979
0.000707053997
0.000707042178
0.000707029586
0.000707016289
0.000707002369
0.000706987918
0.000706973043
0.00070695785
0.000706942455
0.000706926981
0.000706911544
0.000706896263
0.000706881255
0.000706866623
0.000706852467
0.00070683888
0.000706825933
0.000706813693
0.000706802208
0.00070679152
0.000706781648
0.00070677261
0.000706764401
0.000706757014
0.000706750428
0.000706744621
0.000706739556
0.000706735196
0.000706731505
0.000706728434
0.000706725939
0.00070672398
0.000706722508
0.000706721477
0.000706720851
0.000706720582
0.000706720633
0.000706720965
0.000706721549
0.000706722348
0.000706723332
0.00070672448
0.000706725763
0.000706727158
0.00070672865
0.000706730217
0.000706731844
0.000706733519
0.000706735227
0.000706736956
0.0007067387
0.00070674044
0.000706742158
0.000706742887
0.000706742846
0.000706742957
0.0007067432
0.000706743568
0.000706744046
0.000706744627
0.000706745295
0.000706746037
0.000706746844
0.000706747709
0.00070674862
0.00070674957
0.000706750557
0.000706751569
0.0007067526
0.00070675365
0.000706754709
0.000706755773
0.000706756843
0.000706757911
0.000706758977
0.000706760035
0.000706761089
0.000706762131
0.000706763164
0.000706764183
0.000706765187
0.000706766175
0.000706767149
0.000706768103
0.000706769038
0.000706769956
0.000706770852
0.000706771727
0.000706772584
0.000706773418
0.000706774229
0.00070677502
0.000706775788
0.000706776534
0.000706777255
0.000706777957
0.000706778634
0.000706779287
0.00070677992
0.000706780529
0.000706781114
0.000706781678
0.000706782223
0.000706782726
0.000706798213
0.000706738399
0.000706745849
0.000706740463
0.000706737671
0.000706737792
0.0007067409
0.000706746724
0.000706754717
0.000706764239
0.000706774726
0.000706785615
0.000706796221
0.000706805624
0.000706812796
0.000706809756
0.000706808461
0.000706810364
0.000706809442
0.00070680291
0.000706796445
0.000706791284
0.000706788348
0.000706788158
0.000706790847
0.000706796229
0.000706803871
0.000706813197
0.00070682353
0.000706834117
0.000706844136
0.00070685272
0.000706859037
0.000706862415
0.000706862505
0.000706859427
0.000706853812
0.000706846736
0.000706839517
0.000706833447
0.0007068295
0.000706828137
0.000706829253
0.000706832292
0.000706836479
0.000706841073
0.000706845557
0.000706849718
0.000706853597
0.000706857383
0.000706861292
0.000706865484
0.000706870048
0.000706875006
0.000706880356
0.000706886093
0.000706892222
0.000706898753
0.000706905701
0.000706913073
0.00070692087
0.00070692908
0.000706937688
0.000706946667
0.00070695599
0.000706965619
0.000706975511
0.000706985626
0.000706995908
0.000707006306
0.000707016766
0.000707027225
0.000707037625
0.000707047906
0.000707058
0.000707067842
0.000707077369
0.000707086511
0.000707095196
0.000707103362
0.000707110932
0.000707107047
0.000707099017
0.000707089958
0.000707079885
0.000707068822
0.000707056812
0.000707043901
0.000707030161
0.000707015665
0.000707000507
0.000706984792
0.00070696864
0.000706952171
0.000706935518
0.000706918822
0.000706902216
0.000706885834
0.000706869812
0.000706854266
0.000706839309
0.000706825041
0.000706811542
0.000706798881
0.000706787108
0.000706776263
0.000706766359
0.000706757408
0.000706749397
0.000706742308
0.000706736109
0.000706730767
0.000706726233
0.000706722456
0.00070671939
0.000706716976
0.000706715159
0.000706713888
0.000706713106
0.000706712762
0.00070671281
0.0007067132
0.000706713889
0.000706714836
0.000706716008
0.000706717367
0.000706718882
0.00070672053
0.000706722282
0.000706724116
0.000706726016
0.000706727962
0.000706729936
0.00070673193
0.000706733926
0.000706735914
0.000706737891
0.000706739854
0.000706741035
0.00070674101
0.000706741027
0.000706741191
0.000706741486
0.000706741905
0.000706742432
0.00070674306
0.000706743774
0.000706744564
0.000706745419
0.000706746331
0.000706747287
0.000706748279
0.000706749306
0.000706750355
0.000706751422
0.000706752507
0.000706753601
0.0007067547
0.000706755805
0.000706756909
0.00070675801
0.000706759104
0.000706760193
0.000706761269
0.000706762336
0.000706763388
0.000706764425
0.000706765444
0.000706766448
0.000706767433
0.000706768396
0.000706769342
0.000706770267
0.000706771169
0.000706772052
0.000706772912
0.000706773749
0.000706774566
0.000706775359
0.00070677613
0.000706776876
0.000706777603
0.000706778305
0.000706778983
0.000706779641
0.000706780274
0.000706780883
0.000706781472
0.000706782041
0.000706782563
0.000706798078
0.000706737667
0.000706743641
0.000706736866
0.000706732901
0.00070673217
0.000706734818
0.000706740593
0.00070674891
0.000706759077
0.000706770468
0.000706782455
0.000706794261
0.00070680482
0.000706812938
0.000706809882
0.000706808089
0.000706809986
0.000706809043
0.000706801323
0.000706793528
0.000706787079
0.00070678306
0.000706782105
0.00070678441
0.000706789799
0.000706797817
0.000706807834
0.000706819103
0.000706830785
0.000706841954
0.000706851622
0.000706858823
0.000706862751
0.000706862951
0.000706859477
0.000706852982
0.000706844653
0.000706835993
0.000706828499
0.000706823327
0.000706821056
0.000706821613
0.000706824397
0.00070682853
0.000706833154
0.000706837659
0.000706841779
0.000706845545
0.000706849169
0.000706852897
0.000706856922
0.000706861351
0.000706866217
0.000706871522
0.000706877261
0.000706883443
0.000706890085
0.000706897204
0.000706904813
0.000706912914
0.000706921499
0.000706930553
0.000706940048
0.000706949956
0.000706960237
0.000706970846
0.00070698174
0.000706992859
0.000707004147
0.000707015545
0.000707026986
0.000707038402
0.000707049731
0.000707060901
0.000707071841
0.000707082486
0.00070709276
0.00070710259
0.000707111904
0.000707120614
0.000707117113
0.000707108332
0.000707098428
0.000707087415
0.000707075319
0.000707062182
0.000707048054
0.000707033011
0.000707017138
0.000707000539
0.000706983332
0.000706965657
0.000706947653
0.000706929476
0.000706911286
0.000706893242
0.000706875498
0.000706858211
0.000706841516
0.000706825538
0.000706810393
0.000706796168
0.000706782936
0.00070677075
0.000706759645
0.000706749632
0.000706740711
0.000706732861
0.00070672605
0.000706720235
0.000706715367
0.000706711385
0.000706708224
0.000706705823
0.00070670411
0.00070670302
0.000706702491
0.000706702455
0.000706702854
0.000706703636
0.000706704742
0.000706706127
0.000706707745
0.00070670956
0.000706711532
0.000706713627
0.000706715823
0.00070671809
0.000706720404
0.000706722753
0.000706725115
0.000706727476
0.000706729829
0.000706732161
0.000706734463
0.000706736727
0.000706738422
0.000706738587
0.000706738539
0.000706738651
0.000706738908
0.000706739297
0.000706739807
0.000706740421
0.000706741131
0.000706741922
0.000706742785
0.000706743708
0.000706744687
0.00070674571
0.000706746767
0.000706747858
0.00070674897
0.000706750099
0.000706751244
0.000706752395
0.000706753548
0.000706754706
0.000706755859
0.000706757008
0.000706758147
0.00070675928
0.000706760398
0.000706761505
0.000706762596
0.000706763671
0.000706764727
0.000706765767
0.000706766787
0.000706767785
0.000706768766
0.000706769723
0.000706770657
0.000706771572
0.000706772463
0.000706773329
0.000706774175
0.000706774997
0.000706775795
0.000706776568
0.000706777321
0.000706778049
0.000706778752
0.000706779435
0.000706780093
0.000706780727
0.00070678134
0.000706781934
0.00070678248
0.000706798038
0.00070673693
0.000706741421
0.000706733249
0.00070672809
0.00070672647
0.00070672861
0.000706734283
0.000706742882
0.000706753668
0.000706765966
0.000706779093
0.000706792185
0.00070680405
0.000706813337
0.000706810227
0.000706808025
0.000706810055
0.000706809474
0.000706800614
0.000706791467
0.000706783646
0.000706778413
0.000706776537
0.000706778296
0.00070678355
0.000706791836
0.000706802484
0.000706814682
0.000706827506
0.000706839916
0.000706850786
0.000706858996
0.000706863587
0.000706863985
0.000706860195
0.000706852895
0.00070684337
0.000706833288
0.000706824345
0.000706817885
0.000706814617
0.000706814514
0.000706816936
0.00070682091
0.000706825465
0.000706829898
0.000706833888
0.000706837457
0.000706840838
0.000706844311
0.000706848098
0.000706852327
0.00070685704
0.000706862244
0.000706867936
0.000706874129
0.000706880845
0.000706888107
0.000706895933
0.000706904328
0.000706913285
0.000706922789
0.000706932812
0.000706943322
0.000706954275
0.000706965623
0.000706977316
0.000706989289
0.000707001481
0.00070701383
0.000707026264
0.000707038714
0.000707051114
0.000707063389
0.000707075467
0.000707087278
0.000707098742
0.000707109782
0.000707120322
0.000707130269
0.000707127746
0.000707118216
0.000707107458
0.000707095482
0.000707082313
0.000707067994
0.000707052578
0.000707036148
0.000707018796
0.00070700064
0.000706981815
0.000706962478
0.000706942793
0.000706922938
0.000706903102
0.000706883469
0.000706864223
0.000706845541
0.000706827584
0.000706810494
0.000706794402
0.000706779405
0.000706765581
0.000706752982
0.000706741643
0.000706731564
0.000706722737
0.000706715126
0.000706708685
0.000706703353
0.000706699067
0.000706695746
0.000706693311
0.000706691684
0.000706690779
0.000706690517
0.000706690826
0.000706691626
0.00070669285
0.000706694438
0.000706696328
0.000706698467
0.000706700806
0.000706703307
0.000706705928
0.000706708636
0.000706711406
0.000706714209
0.000706717024
0.000706719837
0.000706722627
0.000706725381
0.000706728093
0.000706730747
0.000706733336
0.000706735668
0.000706736201
0.000706736072
0.000706736125
0.000706736337
0.000706736691
0.000706737173
0.000706737773
0.000706738473
0.000706739267
0.000706740138
0.000706741078
0.000706742075
0.000706743124
0.000706744212
0.000706745333
0.000706746483
0.000706747653
0.000706748837
0.000706750035
0.000706751238
0.000706752442
0.000706753648
0.000706754849
0.000706756043
0.000706757227
0.000706758403
0.000706759562
0.000706760709
0.000706761839
0.000706762951
0.000706764043
0.000706765118
0.00070676617
0.0007067672
0.000706768211
0.000706769198
0.000706770161
0.000706771104
0.000706772022
0.000706772916
0.000706773789
0.000706774636
0.000706775461
0.000706776259
0.000706777038
0.000706777791
0.000706778519
0.000706779226
0.000706779909
0.000706780567
0.000706781204
0.000706781822
0.000706782387
0.000706797972
0.000706736187
0.000706739181
0.000706729597
0.000706723234
0.000706720724
0.000706722365
0.000706727957
0.000706736871
0.000706748316
0.00070676156
0.000706775857
0.000706790245
0.000706803388
0.00070681374
0.000706810369
0.000706807728
0.000706809851
0.000706809747
0.000706799721
0.000706789227
0.000706780064
0.000706773662
0.000706770919
0.000706772191
0.000706777368
0.000706785975
0.000706797301
0.000706810465
0.000706824457
0.000706838124
0.00070685021
0.000706859441
0.000706864712
0.000706865325
0.000706861212
0.000706853058
0.000706842265
0.000706830683
0.000706820218
0.000706812405
0.000706808082
0.000706807269
0.000706809287
0.000706813065
0.000706817518
0.000706821842
0.000706825663
0.00070682899
0.000706832077
0.000706835239
0.000706838732
0.000706842704
0.000706847212
0.000706852267
0.000706857874
0.000706864049
0.00070687082
0.000706878218
0.000706886265
0.00070689497
0.000706904329
0.000706914325
0.000706924931
0.00070693611
0.000706947816
0.000706959997
0.000706972596
0.000706985546
0.000706998776
0.000707012218
0.000707025795
0.000707039429
0.000707053049
0.000707066574
0.00070707993
0.000707093042
0.000707105829
0.000707118209
0.000707130102
0.000707141409
0.000707140582
0.000707130296
0.000707118659
0.000707105678
0.000707091372
0.000707075781
0.000707058958
0.000707040991
0.000707021981
0.00070700206
0.000706981383
0.000706960131
0.000706938496
0.000706916686
0.000706894926
0.000706873432
0.00070685242
0.000706832101
0.00070681266
0.000706794265
0.000706777063
0.000706761163
0.000706746648
0.000706733572
0.000706721963
0.00070671181
0.000706703094
0.000706695759
0.000706689744
0.000706684966
0.00070668134
0.000706678768
0.000706677149
0.000706676389
0.000706676386
0.000706677043
0.000706678276
0.000706679995
0.000706682122
0.000706684591
0.000706687332
0.000706690288
0.000706693406
0.000706696646
0.000706699964
0.000706703326
0.000706706707
0.000706710078
0.000706713419
0.000706716716
0.000706719952
0.000706723117
0.000706726206
0.00070672921
0.000706732119
0.000706733298
0.000706733112
0.000706733122
0.000706733309
0.000706733652
0.000706734136
0.000706734743
0.000706735463
0.000706736277
0.000706737179
0.000706738153
0.00070673919
0.000706740279
0.000706741417
0.00070674259
0.000706743791
0.000706745018
0.000706746261
0.000706747515
0.000706748779
0.000706750045
0.000706751309
0.000706752572
0.000706753827
0.000706755072
0.000706756305
0.000706757528
0.000706758732
0.000706759923
0.000706761094
0.000706762246
0.000706763377
0.000706764489
0.000706765579
0.000706766644
0.00070676769
0.000706768711
0.000706769706
0.000706770681
0.00070677163
0.000706772553
0.000706773454
0.00070677433
0.000706775181
0.000706776007
0.000706776811
0.000706777589
0.000706778342
0.000706779073
0.00070677978
0.000706780462
0.000706781123
0.000706781765
0.000706782353
0.000706797979
0.000706735436
0.000706736915
0.000706725901
0.000706718313
0.000706714895
0.000706716023
0.00070672153
0.000706730763
0.000706742883
0.000706757101
0.000706772606
0.000706788341
0.00070680283
0.000706814349
0.000706810604
0.000706807538
0.000706809796
0.000706810362
0.000706799162
0.000706787287
0.000706776734
0.000706769111
0.000706765454
0.000706766203
0.000706771285
0.000706780217
0.000706792247
0.000706806427
0.000706821651
0.000706836645
0.00070685001
0.000706860314
0.000706866296
0.000706866401
0.000706862703
0.000706853719
0.000706841672
0.000706828583
0.000706816563
0.000706807344
0.0007068019
0.000706800303
0.000706801838
0.000706805341
0.000706809609
0.000706813744
0.000706817312
0.000706820313
0.000706823021
0.000706825788
0.000706828905
0.000706832545
0.000706836778
0.000706841623
0.00070684709
0.000706853203
0.000706859997
0.00070686751
0.000706875771
0.000706884793
0.000706894574
0.000706905097
0.000706916331
0.000706928235
0.000706940759
0.000706953839
0.000706967414
0.000706981406
0.000706995737
0.000707010332
0.000707025106
0.00070703998
0.000707054879
0.000707069718
0.00070708442
0.000707098911
0.000707113105
0.000707126921
0.000707140274
0.000707153062
0.000707154809
0.000707143781
0.000707131267
0.000707117262
0.000707101776
0.000707084846
0.000707066521
0.000707046892
0.00070702607
0.000707004202
0.000706981463
0.000706958062
0.000706934224
0.000706910197
0.000706886245
0.000706862626
0.000706839598
0.000706817412
0.000706796285
0.000706776415
0.00070675797
0.000706741071
0.00070672581
0.000706712238
0.000706700374
0.000706690196
0.000706681664
0.000706674704
0.000706669228
0.00070666513
0.000706662301
0.000706660616
0.000706659954
0.000706660198
0.000706661227
0.00070666293
0.000706665204
0.000706667951
0.00070667108
0.000706674518
0.000706678188
0.00070668203
0.000706685987
0.000706690017
0.000706694075
0.000706698127
0.00070670215
0.000706706116
0.000706710006
0.000706713809
0.00070671751
0.000706721098
0.000706724572
0.000706727923
0.000706729954
0.00070672993
0.000706729904
0.000706730071
0.000706730411
0.000706730901
0.000706731526
0.000706732267
0.000706733116
0.000706734052
0.00070673507
0.000706736154
0.000706737296
0.000706738483
0.000706739714
0.000706740974
0.000706742258
0.000706743565
0.000706744883
0.000706746208
0.00070674754
0.00070674887
0.000706750196
0.000706751518
0.000706752829
0.000706754128
0.000706755412
0.000706756684
0.000706757935
0.00070675917
0.000706760384
0.000706761576
0.000706762746
0.000706763895
0.00070676502
0.000706766119
0.000706767197
0.000706768249
0.000706769275
0.000706770278
0.000706771256
0.000706772207
0.000706773136
0.000706774038
0.000706774916
0.000706775767
0.000706776597
0.0007067774
0.000706778178
0.000706778934
0.000706779665
0.00070678037
0.000706781054
0.00070678172
0.000706782328
0.000706797983
0.000706734676
0.000706734618
0.000706722149
0.000706713316
0.000706708975
0.000706709584
0.000706715009
0.000706724579
0.000706737403
0.000706752633
0.000706769387
0.000706786504
0.000706802362
0.000706815051
0.000706810788
0.000706807283
0.000706809669
0.000706811031
0.000706798649
0.000706785394
0.000706773456
0.00070676462
0.000706760056
0.000706760294
0.000706765297
0.000706774578
0.000706787341
0.000706802568
0.000706819059
0.000706835421
0.00070685011
0.000706861533
0.000706868272
0.00070686571
0.000706864199
0.000706854825
0.00070684148
0.000706826828
0.000706813194
0.000706802506
0.000706795876
0.000706793431
0.000706794421
0.000706797589
0.000706801613
0.000706805494
0.000706808738
0.000706811335
0.00070681358
0.000706815864
0.000706818515
0.000706821733
0.000706825606
0.000706830163
0.000706835422
0.000706841416
0.00070684819
0.000706855789
0.000706864251
0.000706873594
0.000706883816
0.0007068949
0.000706906812
0.000706919506
0.000706932924
0.000706946996
0.00070696165
0.0007069768
0.000706992357
0.000707008238
0.000707024349
0.000707040602
0.000707056915
0.000707073201
0.000707089381
0.000707105379
0.00070712111
0.000707136492
0.00070715144
0.000707165851
0.000707171235
0.00070715948
0.000707146084
0.000707131028
0.000707114308
0.000707095949
0.000707075997
0.000707054541
0.0007070317
0.000707007637
0.000706982551
0.000706956686
0.000706930307
0.00070690371
0.00070687721
0.000706851118
0.000706825745
0.000706801389
0.000706778311
0.000706756743
0.000706736878
0.000706718855
0.000706702769
0.000706688669
0.000706676563
0.00070666641
0.000706658146
0.000706651668
0.000706646859
0.000706643583
0.0007066417
0.000706641057
0.000706641504
0.000706642902
0.000706645106
0.000706647987
0.000706651428
0.000706655315
0.00070665955
0.000706664049
0.000706668731
0.000706673531
0.000706678391
0.000706683266
0.000706688111
0.000706692894
0.000706697592
0.000706702178
0.000706706636
0.000706710958
0.000706715131
0.000706719149
0.000706723013
0.000706725801
0.000706726214
0.000706726176
0.000706726346
0.000706726702
0.000706727226
0.000706727892
0.000706728685
0.000706729587
0.000706730588
0.000706731668
0.000706732821
0.000706734034
0.000706735296
0.000706736598
0.000706737936
0.000706739298
0.000706740678
0.000706742074
0.000706743477
0.000706744881
0.000706746288
0.00070674769
0.000706749082
0.000706750467
0.000706751838
0.000706753194
0.000706754532
0.000706755855
0.000706757154
0.000706758436
0.000706759694
0.000706760929
0.000706762138
0.000706763327
0.000706764489
0.000706765625
0.000706766738
0.000706767824
0.000706768883
0.000706769918
0.000706770926
0.000706771907
0.000706772864
0.000706773794
0.000706774698
0.000706775575
0.00070677643
0.000706777258
0.000706778059
0.000706778839
0.000706779594
0.000706780322
0.000706781029
0.000706781718
0.000706782347
0.00070679804
0.000706733906
0.000706732285
0.000706718337
0.000706708234
0.000706702949
0.00070670303
0.000706708375
0.000706718295
0.000706731849
0.000706748128
0.000706766173
0.000706784716
0.000706801985
0.00070681588
0.000706810977
0.000706807046
0.000706809591
0.000706811878
0.000706798298
0.000706783636
0.000706770284
0.000706760207
0.000706754719
0.000706754441
0.000706759377
0.000706769034
0.000706782578
0.000706798918
0.00070681675
0.000706834556
0.000706850637
0.000706863236
0.000706869207
0.000706863728
0.000706863627
0.000706856457
0.000706841815
0.000706825582
0.000706810294
0.000706798081
0.000706790199
0.000706786831
0.000706787201
0.000706789952
0.000706793648
0.000706797185
0.000706800011
0.000706802101
0.000706803775
0.000706805464
0.000706807537
0.000706810225
0.000706813636
0.000706817812
0.000706822783
0.000706828591
0.000706835292