/*--------------------------------*- C++ -*----------------------------------*\
| =========                 |                                                 |
| \\      /  F ield         | OpenFOAM: The Open Source CFD Toolbox           |
|  \\    /   O peration     | Version:  v2012                                 |
|   \\  /    A nd           | Website:  www.openfoam.com                      |
|    \\/     M anipulation  |                                                 |
\*---------------------------------------------------------------------------*/
FoamFile
{
    version     2.0;
    format      ascii;
    class       volVectorField;
    location    "2.34";
    object      U;
}
// * * * * * * * * * * * * * * * * * * * * * * * * * * * * * * * * * * * * * //

dimensions      [0 1 -1 0 0 0 0];


internalField   nonuniform List<vector> 
28416
(
(0.0999975546 1.56260256e-05 0)
(0.099979117 4.74529542e-05 0)
(0.0999437306 7.79020952e-05 0)
(0.0998938064 0.000103868044 0)
(0.0998335988 0.000122452472 0)
(0.0997671115 0.000131650428 0)
(0.0996979982 0.000130948724 0)
(0.0996297432 0.000121235307 0)
(0.0995655377 0.000103975703 0)
(0.0995081906 8.05512152e-05 0)
(0.0994602075 5.24289082e-05 0)
(0.0994239625 2.18372894e-05 0)
(0.0994005371 -8.1764969e-06 0)
(0.0993855999 -3.42387632e-05 0)
(0.0993745751 -4.87509656e-05 0)
(0.0993664535 -4.66950541e-05 0)
(0.0993590382 -2.76760175e-05 0)
(0.0993499036 4.94501336e-06 0)
(0.0993336481 4.47894977e-05 0)
(0.0993042895 8.79475151e-05 0)
(0.0992617213 0.00013086261 0)
(0.0992088777 0.000169230158 0)
(0.0991485815 0.000199290464 0)
(0.0990835024 0.000218686137 0)
(0.0990166207 0.000226414542 0)
(0.098950958 0.000222640497 0)
(0.098889239 0.000208589558 0)
(0.0988338058 0.000186427158 0)
(0.0987865421 0.00015913449 0)
(0.098748681 0.000130401463 0)
(0.0987205485 0.00010445743 0)
(0.0987013289 8.5726595e-05 0)
(0.0986889766 7.82600556e-05 0)
(0.0986804527 8.4999544e-05 0)
(0.098672048 0.000106993109 0)
(0.098659896 0.000143001796 0)
(0.0986407511 0.000189558571 0)
(0.0986126093 0.000241605865 0)
(0.0985750034 0.000293582616 0)
(0.0985289053 0.000340664973 0)
(0.0984763091 0.000379770559 0)
(0.0984196204 0.000410008204 0)
(0.0983610306 0.000432463069 0)
(0.0983020644 0.000449452337 0)
(0.0982434109 0.000463570671 0)
(0.0981850317 0.000476884424 0)
(0.0981264449 0.000490517109 0)
(0.0980670432 0.000504668493 0)
(0.09800633 0.000518930101 0)
(0.097944023 0.000532681304 0)
(0.0978800399 0.000545386456 0)
(0.0978144245 0.000556717486 0)
(0.0977472696 0.000566528839 0)
(0.0976786718 0.000574764315 0)
(0.0976087213 0.000581370696 0)
(0.0975375155 0.000586255394 0)
(0.0974651769 0.000589286811 0)
(0.097391866 0.00059031619 0)
(0.0973177854 0.000589200076 0)
(0.0972431778 0.000585813112 0)
(0.0971683222 0.000580051224 0)
(0.0970935306 0.000571829896 0)
(0.0970191448 0.000561081892 0)
(0.0969455333 0.000547756457 0)
(0.0968730886 0.000531819817 0)
(0.0968022226 0.000513256278 0)
(0.0967333624 0.000492069592 0)
(0.0966669458 0.000468284626 0)
(0.0966034177 0.000441949358 0)
(0.0965432283 0.000413136858 0)
(0.0964868321 0.000381946551 0)
(0.096434689 0.000348504001 0)
(0.0963872649 0.000312958637 0)
(0.0963450333 0.000275479612 0)
(0.096308474 0.000236247705 0)
(0.0962780843 0.000195449187 0)
(0.0962543737 0.000153241094 0)
(0.096237784 0.000109732456 0)
(0.0962285325 6.50366531e-05 0)
(0.0962263655 1.94450416e-05 0)
(0.09623196 -2.61066648e-05 0)
(0.0962466353 -7.17424818e-05 0)
(0.0962704802 -0.000117679073 0)
(0.0963032299 -0.000163683278 0)
(0.0963449462 -0.000209459689 0)
(0.0963956666 -0.000254739459 0)
(0.0964552869 -0.000299233136 0)
(0.0965236282 -0.000342632356 0)
(0.0966004421 -0.000384620833 0)
(0.0966853906 -0.0004248735 0)
(0.0967780479 -0.00046305712 0)
(0.0968779113 -0.000498837249 0)
(0.0969844083 -0.000531889086 0)
(0.0970969037 -0.000561910296 0)
(0.0972147074 -0.000588633878 0)
(0.0973370823 -0.000611838749 0)
(0.0974632513 -0.000631356676 0)
(0.0975924067 -0.000647075513 0)
(0.0977237203 -0.000658939584 0)
(0.0978563557 -0.000666948302 0)
(0.097989482 -0.000671153805 0)
(0.0981222862 -0.000671657914 0)
(0.0982539862 -0.000668608405 0)
(0.0983838418 -0.000662194472 0)
(0.0985111641 -0.000652641316 0)
(0.0986353233 -0.000640204002 0)
(0.0987557544 -0.000625160772 0)
(0.0988719609 -0.000607806128 0)
(0.0989835173 -0.000588443979 0)
(0.0990900691 -0.000567381111 0)
(0.0991913321 -0.000544921208 0)
(0.0992870899 -0.000521359575 0)
(0.0993771892 -0.000496978608 0)
(0.0994615348 -0.000472043858 0)
(0.0995400819 -0.000446800181 0)
(0.0996128232 -0.000421467341 0)
(0.099679797 -0.000396230012 0)
(0.0997411185 -0.000371241785 0)
(0.0997969674 -0.000346641605 0)
(0.0998475502 -0.00032255551 0)
(0.0998930866 -0.000299093678 0)
(0.0999338071 -0.000276349189 0)
(0.0999699507 -0.000254398191 0)
(0.100001761 -0.000233300167 0)
(0.100029478 -0.000213097186 0)
(0.100053345 -0.000193810425 0)
(0.100073608 -0.000175445615 0)
(0.100090518 -0.000157998793 0)
(0.100104323 -0.000141459262 0)
(0.100115265 -0.000125811174 0)
(0.100123582 -0.000111034677 0)
(0.1001295 -9.71066732e-05 0)
(0.100133237 -8.4000898e-05 0)
(0.100134998 -7.16861311e-05 0)
(0.100134976 -6.01212646e-05 0)
(0.100133355 -4.92523626e-05 0)
(0.10013033 -3.90144703e-05 0)
(0.100126121 -2.93465866e-05 0)
(0.100121004 -2.02324404e-05 0)
(0.100115295 -1.17765112e-05 0)
(0.100109248 -4.23451903e-06 0)
(0.100102731 2.16651514e-06 0)
(0.100095283 7.5578974e-06 0)
(0.100086714 1.22300702e-05 0)
(0.100077217 1.63736862e-05 0)
(0.10006703 2.00841268e-05 0)
(0.100056301 2.34231858e-05 0)
(0.100045145 2.64402276e-05 0)
(0.100033667 2.91715823e-05 0)
(0.100021951 3.16434352e-05 0)
(0.100010073 3.38741581e-05 0)
(0.0999981031 3.58744515e-05 0)
(0.0999860985 3.76498325e-05 0)
(0.0999741041 3.92045239e-05 0)
(0.0999621537 4.05440868e-05 0)
(0.0999502744 4.16764635e-05 0)
(0.0999384884 4.26120898e-05 0)
(0.0999268149 4.33635156e-05 0)
(0.0999152708 4.3944751e-05 0)
(0.0999038718 4.43705059e-05 0)
(0.0998926331 4.46554782e-05 0)
(0.0998815692 4.48137624e-05 0)
(0.099870694 4.48583963e-05 0)
(0.0998600203 4.48010526e-05 0)
(0.0998495604 4.46519017e-05 0)
(0.0998393249 4.44196327e-05 0)
(0.0998293235 4.4111585e-05 0)
(0.0998195642 4.37339441e-05 0)
(0.0998100536 4.3291978e-05 0)
(0.099800797 4.27902911e-05 0)
(0.0997917982 4.22330659e-05 0)
(0.0997830602 4.16242683e-05 0)
(0.099774585 4.09677982e-05 0)
(0.0997663737 4.02675778e-05 0)
(0.0997584273 3.95275801e-05 0)
(0.099750746 3.87518071e-05 0)
(0.0997433304 3.79442305e-05 0)
(0.0997361807 3.71087089e-05 0)
(0.0997292974 3.62488946e-05 0)
(0.0997226811 3.53681514e-05 0)
(0.0997163324 3.44695017e-05 0)
(0.0997102521 3.35555892e-05 0)
(0.0997044419 3.26286935e-05 0)
(0.0996989013 3.16905527e-05 0)
(0.099693639 3.07429615e-05 0)
(0.0996886342 2.97846726e-05 0)
(0.0996839743 2.8824291e-05 0)
(0.0996793867 2.78187316e-05 0)
(0.0996759111 2.69485536e-05 0)
(0.0996702981 2.53244798e-05 0)
(0.0999983331 3.24828161e-05 0)
(0.0999833597 9.69641359e-05 0)
(0.0999508376 0.000156841229 0)
(0.0999015221 0.000207034677 0)
(0.0998397461 0.000243148529 0)
(0.0997701708 0.000262186925 0)
(0.0996970392 0.000263545501 0)
(0.0996243512 0.000248860407 0)
(0.0995558164 0.000220605385 0)
(0.0994947373 0.000181014964 0)
(0.0994439581 0.000132451827 0)
(0.0994055279 7.86865383e-05 0)
(0.099379448 2.55005987e-05 0)
(0.0993657918 -1.91713072e-05 0)
(0.0993636735 -4.52298572e-05 0)
(0.0993679189 -4.68247502e-05 0)
(0.0993717492 -2.25780468e-05 0)
(0.0993692369 2.41932745e-05 0)
(0.0993567031 8.53867165e-05 0)
(0.0993316698 0.000152975583 0)
(0.0992922898 0.000219476297 0)
(0.0992392053 0.000277799787 0)
(0.0991752447 0.000322378868 0)
(0.0991041552 0.000349944627 0)
(0.0990299857 0.000359339084 0)
(0.0989567652 0.00035106908 0)
(0.0988881979 0.000327002297 0)
(0.098827472 0.000290197743 0)
(0.0987771313 0.000244861591 0)
(0.0987388834 0.000196372391 0)
(0.0987133256 0.000151175878 0)
(0.0986996669 0.00011631289 0)
(0.0986955801 9.84690428e-05 0)
(0.0986973017 0.000102646383 0)
(0.0987000113 0.000130762618 0)
(0.0986985318 0.000180916817 0)
(0.0986882861 0.000247520248 0)
(0.0986662106 0.000322394932 0)
(0.098631315 0.000396595971 0)
(0.0985847122 0.000462462651 0)
(0.0985291259 0.000515251737 0)
(0.098468034 0.00055383473 0)
(0.0984047209 0.000580293262 0)
(0.0983415405 0.000598652156 0)
(0.0982795914 0.000613286093 0)
(0.09821883 0.000627594787 0)
(0.0981584874 0.000643345467 0)
(0.0980975698 0.000660745049 0)
(0.0980352468 0.000679003019 0)
(0.0979710308 0.000697015669 0)
(0.097904764 0.000713867804 0)
(0.0978364978 0.000729028433 0)
(0.0977663626 0.000742292759 0)
(0.0976944858 0.000753611155 0)
(0.0976209708 0.000762934915 0)
(0.0975459161 0.000770141702 0)
(0.0974694449 0.000775036447 0)
(0.0973917254 0.000777389611 0)
(0.097312978 0.000776976019 0)
(0.0972334716 0.000773596592 0)
(0.097153517 0.000767083362 0)
(0.0970734604 0.000757296355 0)
(0.0969936799 0.000744120023 0)
(0.0969145813 0.000727462542 0)
(0.0968365957 0.000707257426 0)
(0.0967601753 0.000683465762 0)
(0.0966857891 0.000656077781 0)
(0.0966139198 0.000625113391 0)
(0.0965450594 0.000590621792 0)
(0.0964797069 0.000552680403 0)
(0.0964183654 0.000511393292 0)
(0.0963615403 0.000466889283 0)
(0.0963097365 0.000419319556 0)
(0.0962634551 0.000368855107 0)
(0.0962231917 0.000315683058 0)
(0.0961894171 0.000260003077 0)
(0.0961625554 0.000202010457 0)
(0.0961430016 0.000141894037 0)
(0.0961312062 7.9907886e-05 0)
(0.0961279492 1.64609411e-05 0)
(0.0961335415 -4.78545598e-05 0)
(0.0961479611 -0.000112757124 0)
(0.0961716288 -0.000178128786 0)
(0.0962048002 -0.000243611787 0)
(0.096247545 -0.000308793267 0)
(0.0962998874 -0.000373268839 0)
(0.0963617706 -0.00043659813 0)
(0.0964330435 -0.000498307136 0)
(0.0965134646 -0.000557907075 0)
(0.0966026952 -0.000614902967 0)
(0.0967002991 -0.00066880219 0)
(0.0968057479 -0.000719126753 0)
(0.096918427 -0.000765425908 0)
(0.0970376419 -0.000807287979 0)
(0.0971626273 -0.000844351515 0)
(0.0972925562 -0.000876315238 0)
(0.0974265509 -0.000902946304 0)
(0.0975636964 -0.000924086558 0)
(0.0977030544 -0.000939656454 0)
(0.0978436793 -0.000949656454 0)
(0.0979846346 -0.000954165839 0)
(0.0981250085 -0.000953339062 0)
(0.0982639288 -0.000947399951 0)
(0.0984005761 -0.00093663414 0)
(0.0985341944 -0.000921380153 0)
(0.0986641002 -0.00090201957 0)
(0.0987896884 -0.000878966691 0)
(0.0989104363 -0.000852658103 0)
(0.0990259054 -0.000823542519 0)
(0.0991357408 -0.000792071201 0)
(0.099239669 -0.000758689217 0)
(0.0993374939 -0.000723827694 0)
(0.0994290917 -0.000687897106 0)
(0.0995144047 -0.000651281383 0)
(0.0995934345 -0.000614332324 0)
(0.0996662362 -0.000577363717 0)
(0.0997329173 -0.000540640532 0)
(0.0997936386 -0.000504385398 0)
(0.099848605 -0.00046879867 0)
(0.0998980503 -0.000434060399 0)
(0.099942227 -0.000400326232 0)
(0.0999814007 -0.000367725674 0)
(0.100015846 -0.000336362379 0)
(0.100045841 -0.000306314872 0)
(0.100071671 -0.000277636769 0)
(0.100093617 -0.00025035586 0)
(0.100111953 -0.000224479301 0)
(0.100126947 -0.000199999254 0)
(0.100138861 -0.000176896383 0)
(0.100147947 -0.000155141927 0)
(0.100154451 -0.000134699177 0)
(0.100158606 -0.000115524755 0)
(0.100160641 -9.7569976e-05 0)
(0.100160778 -8.07830316e-05 0)
(0.100159236 -6.51120401e-05 0)
(0.100156225 -5.05051096e-05 0)
(0.100151944 -3.69137662e-05 0)
(0.10014656 -2.43028806e-05 0)
(0.100140155 -1.26675219e-05 0)
(0.100132733 -2.001304e-06 0)
(0.100124411 7.62584638e-06 0)
(0.100115501 1.60236207e-05 0)
(0.100106139 2.32045745e-05 0)
(0.100096204 2.94167143e-05 0)
(0.100085664 3.48742032e-05 0)
(0.100074609 3.96921493e-05 0)
(0.100063136 4.39450673e-05 0)
(0.100051328 4.76929919e-05 0)
(0.100039266 5.09840451e-05 0)
(0.100027014 5.38608852e-05 0)
(0.100014633 5.63628971e-05 0)
(0.100002177 5.85235597e-05 0)
(0.0999896966 6.03699953e-05 0)
(0.0999772359 6.19248932e-05 0)
(0.0999648325 6.32082373e-05 0)
(0.0999525188 6.42382159e-05 0)
(0.0999403222 6.5031834e-05 0)
(0.0999282658 6.56055013e-05 0)
(0.0999163692 6.59754284e-05 0)
(0.0999046491 6.61576791e-05 0)
(0.09989312 6.61679857e-05 0)
(0.0998817946 6.6021525e-05 0)
(0.0998706843 6.57327292e-05 0)
(0.0998597991 6.5315115e-05 0)
(0.0998491481 6.47811459e-05 0)
(0.0998387392 6.41421635e-05 0)
(0.0998285795 6.34083964e-05 0)
(0.0998186749 6.25890223e-05 0)
(0.0998090304 6.16922643e-05 0)
(0.09979965 6.07255075e-05 0)
(0.0997905369 5.96954206e-05 0)
(0.0997816936 5.86080741e-05 0)
(0.0997731216 5.74690439e-05 0)
(0.0997648221 5.62834945e-05 0)
(0.0997567958 5.50562401e-05 0)
(0.0997490431 5.37917807e-05 0)
(0.0997415642 5.24943166e-05 0)
(0.099734359 5.11677501e-05 0)
(0.0997274274 4.98156723e-05 0)
(0.0997207695 4.84413392e-05 0)
(0.0997143851 4.70476428e-05 0)
(0.0997082743 4.56370666e-05 0)
(0.0997024378 4.42116786e-05 0)
(0.0996968741 4.27728682e-05 0)
(0.099691591 4.13220144e-05 0)
(0.0996865649 3.98565941e-05 0)
(0.0996818827 3.83865874e-05 0)
(0.0996772533 3.68543368e-05 0)
(0.0996737376 3.55116207e-05 0)
(0.099667902 3.31129398e-05 0)
(0.0999979291 3.95677315e-05 0)
(0.0999814041 0.000117563178 0)
(0.0999478943 0.000189461508 0)
(0.0998985661 0.000249656162 0)
(0.0998374117 0.000293374292 0)
(0.0997687368 0.000317224352 0)
(0.0996965613 0.000320441266 0)
(0.0996247173 0.000304822111 0)
(0.0995567684 0.000273107763 0)
(0.099495882 0.00022773758 0)
(0.099444801 0.000171320516 0)
(0.0994057143 0.000108253628 0)
(0.0993800089 4.5913286e-05 0)
(0.0993666544 -5.4269824e-06 0)
(0.0993617044 -3.68519946e-05 0)
(0.0993613673 -4.18595106e-05 0)
(0.0993620887 -1.82253807e-05 0)
(0.0993589035 3.12786325e-05 0)
(0.0993464403 9.97130883e-05 0)
(0.0993210816 0.000177027946 0)
(0.0992820324 0.000253077268 0)
(0.0992304471 0.000319402054 0)
(0.0991687495 0.000369757214 0)
(0.0991001785 0.000400369943 0)
(0.0990284112 0.000409864268 0)
(0.0989572201 0.00039885355 0)
(0.0988901676 0.000369502496 0)
(0.0988303967 0.000325262056 0)
(0.0987804698 0.000270819852 0)
(0.0987421602 0.000212167312 0)
(0.0987161752 0.000156535685 0)
(0.0987018736 0.000111909098 0)
(0.0986970847 8.59646698e-05 0)
(0.0986981669 8.45774312e-05 0)
(0.0987004294 0.000110321951 0)
(0.0986989014 0.000161505079 0)
(0.0986892212 0.000232111703 0)
(0.0986684107 0.000312894731 0)
(0.0986353713 0.000393431425 0)
(0.0985909524 0.000464564009 0)
(0.0985375498 0.000520448992 0)
(0.0984783467 0.000559545674 0)
(0.0984164421 0.000584260375 0)
(0.0983541418 0.0005994748 0)
(0.0982926116 0.000610596368 0)
(0.0982319372 0.000621883593 0)
(0.0981714816 0.000635579113 0)
(0.0981103419 0.000651961859 0)
(0.0980477224 0.00067003735 0)
(0.0979831227 0.00068840294 0)
(0.097916347 0.000705894573 0)
(0.0978474052 0.000721846129 0)
(0.097776397 0.000736019749 0)
(0.0977034335 0.000748384908 0)
(0.0976286141 0.000758915211 0)
(0.0975520402 0.000767487485 0)
(0.0974738414 0.000773880091 0)
(0.0973941946 0.000777821633 0)
(0.0973133308 0.000779041637 0)
(0.0972315327 0.000777299226 0)
(0.0971491284 0.000772389785 0)
(0.0970664851 0.000764140664 0)
(0.0969840045 0.000752406089 0)
(0.0969021189 0.00073706547 0)
(0.0968212868 0.000718024715 0)
(0.0967419889 0.000695218452 0)
(0.0966647219 0.000668611689 0)
(0.0965899937 0.000638200645 0)
(0.0965183188 0.000604013036 0)
(0.0964502146 0.000566108017 0)
(0.0963861995 0.000524575682 0)
(0.0963267922 0.0004795358 0)
(0.0962725109 0.000431135503 0)
(0.0962238722 0.000379546264 0)
(0.0961813893 0.000324961693 0)
(0.0961455686 0.000267593998 0)
(0.0961169093 0.000207687422 0)
(0.09609592 0.000145530055 0)
(0.0960830445 8.14441455e-05 0)
(0.0960783468 1.57286083e-05 0)
(0.0960822966 -5.14866283e-05 0)
(0.096095677 -0.000119820048 0)
(0.0961187134 -0.000188890036 0)
(0.096151527 -0.000258339608 0)
(0.0961942599 -0.000327741245 0)
(0.0962469881 -0.000396622889 0)
(0.096309683 -0.000464481445 0)
(0.0963822163 -0.00053078411 0)
(0.0964643633 -0.000594976919 0)
(0.0965557963 -0.000656493595 0)
(0.0966560813 -0.000714764974 0)
(0.0967646802 -0.000769231802 0)
(0.0968809546 -0.000819359969 0)
(0.097004172 -0.000864656734 0)
(0.0971335141 -0.000904686746 0)
(0.097268089 -0.000939086303 0)
(0.0974069446 -0.000967574589 0)
(0.0975490858 -0.000989961317 0)
(0.0976934915 -0.00100615075 0)
(0.0978391337 -0.0010161424 0)
(0.0979849968 -0.00102002881 0)
(0.0981300951 -0.00101799068 0)
(0.0982734896 -0.00101028967 0)
(0.0984143032 -0.000997259197 0)
(0.0985517321 -0.000979293512 0)
(0.0986850558 -0.000956835738 0)
(0.0988136435 -0.000930365233 0)
(0.0989369577 -0.000900384929 0)
(0.0990545558 -0.000867409091 0)
(0.0991660882 -0.000831951915 0)
(0.0992712956 -0.000794517241 0)
(0.0993700033 -0.000755589602 0)
(0.0994621153 -0.000715626645 0)
(0.0995476067 -0.000675052837 0)
(0.0996265168 -0.00063425441 0)
(0.0996989414 -0.00059357558 0)
(0.0997650272 -0.000553316425 0)
(0.0998249666 -0.000513735723 0)
(0.099878991 -0.000475056592 0)
(0.0999273606 -0.000437468843 0)
(0.0999703552 -0.000401129536 0)
(0.100008266 -0.000366164101 0)
(0.100041393 -0.000332668273 0)
(0.100070036 -0.000300710441 0)
(0.100094497 -0.000270334565 0)
(0.10011507 -0.000241564597 0)
(0.100132045 -0.000214405524 0)
(0.100145702 -0.000188845015 0)
(0.100156313 -0.000164856431 0)
(0.100164142 -0.000142402048 0)
(0.100169443 -0.000121435992 0)
(0.100172455 -0.000101906823 0)
(0.100173406 -8.37600841e-05 0)
(0.100172504 -6.69420928e-05 0)
(0.100169944 -5.14058015e-05 0)
(0.100165907 -3.71130734e-05 0)
(0.100160564 -2.40323027e-05 0)
(0.100154088 -1.21229428e-05 0)
(0.10014672 -1.27434709e-06 0)
(0.100138688 8.55242758e-06 0)
(0.100130021 1.750853e-05 0)
(0.100120681 2.56499762e-05 0)
(0.10011071 3.29074707e-05 0)
(0.100100152 3.92945589e-05 0)
(0.100089046 4.49049566e-05 0)
(0.100077469 4.98277528e-05 0)
(0.100065506 5.41381045e-05 0)
(0.100053241 5.79020572e-05 0)
(0.100040758 6.1174529e-05 0)
(0.100028132 6.3999714e-05 0)
(0.10001543 6.64139701e-05 0)
(0.100002705 6.84487495e-05 0)
(0.0999900023 7.0132368e-05 0)
(0.0999773592 7.14911285e-05 0)
(0.0999648042 7.25502699e-05 0)
(0.0999523607 7.3334363e-05 0)
(0.099940049 7.38670989e-05 0)
(0.0999278874 7.41709185e-05 0)
(0.0999158924 7.42668391e-05 0)
(0.0999040792 7.41744608e-05 0)
(0.099892462 7.39119834e-05 0)
(0.0998810537 7.34961745e-05 0)
(0.0998698662 7.29423268e-05 0)
(0.0998589102 7.22642614e-05 0)
(0.0998481954 7.14743843e-05 0)
(0.09983773 7.05837716e-05 0)
(0.099827521 6.96022745e-05 0)
(0.099817574 6.85386516e-05 0)
(0.0998078938 6.74007215e-05 0)
(0.0997984838 6.61955209e-05 0)
(0.0997893464 6.49294539e-05 0)
(0.0997804832 6.36084227e-05 0)
(0.0997718952 6.22379272e-05 0)
(0.0997635826 6.08231289e-05 0)
(0.0997555456 5.93688838e-05 0)
(0.0997477838 5.78797465e-05 0)
(0.0997402969 5.63599574e-05 0)
(0.0997330846 5.48134213e-05 0)
(0.0997261466 5.32436804e-05 0)
(0.0997194825 5.16538795e-05 0)
(0.0997130924 5.00467337e-05 0)
(0.0997069759 4.84244847e-05 0)
(0.0997011336 4.67888975e-05 0)
(0.0996955635 4.51410292e-05 0)
(0.0996902728 4.34819192e-05 0)
(0.0996852376 4.18088324e-05 0)
(0.0996805427 4.01325457e-05 0)
(0.0996759038 3.83925942e-05 0)
(0.0996723749 3.68691091e-05 0)
(0.0996666213 3.41907147e-05 0)
(0.0999981593 5.02512177e-05 0)
(0.0999825931 0.000150096987 0)
(0.0999498137 0.000243007703 0)
(0.0999004058 0.000321328706 0)
(0.0998381628 0.000378599274 0)
(0.0997674868 0.000410310676 0)
(0.0996926843 0.000415353341 0)
(0.0996179663 0.000395934099 0)
(0.0995473001 0.00035555366 0)
(0.0994842456 0.000297403679 0)
(0.0994318939 0.000224912812 0)
(0.0993926433 0.000143725276 0)
(0.0993675304 6.30613206e-05 0)
(0.0993558587 -5.2320344e-06 0)
(0.0993554738 -4.85673475e-05 0)
(0.0993618969 -5.69635951e-05 0)
(0.0993688016 -2.76644159e-05 0)
(0.0993701609 3.4900275e-05 0)
(0.0993610336 0.000121073561 0)
(0.0993379451 0.000218806858 0)
(0.0992995191 0.000315569617 0)
(0.0992466995 0.000400294606 0)
(0.0991821721 0.000464759084 0)
(0.0991096877 0.000504078584 0)
(0.0990335191 0.000516489831 0)
(0.0989580258 0.000502757367 0)
(0.098887318 0.000465579138 0)
(0.0988250133 0.000409238828 0)
(0.0987740301 0.000339566447 0)
(0.0987363442 0.000264067106 0)
(0.0987126883 0.000191883669 0)
(0.0987022567 0.000133206165 0)
(0.098702551 9.79317009e-05 0)
(0.0987095251 9.37409319e-05 0)
(0.0987180452 0.000124094858 0)
(0.098722586 0.000186889042 0)
(0.0987181572 0.000274430424 0)
(0.0987012823 0.000374912294 0)
(0.0986706473 0.00047506915 0)
(0.098627184 0.000563277469 0)
(0.0985735911 0.000632139489 0)
(0.0985134588 0.000679719586 0)
(0.0984502811 0.000709086355 0)
(0.0983866614 0.000726451229 0)
(0.0983239275 0.000738703561 0)
(0.0982621967 0.000751287528 0)
(0.0982007704 0.00076709373 0)
(0.0981386389 0.000786512503 0)
(0.0980748963 0.000808300249 0)
(0.0980089533 0.000830675829 0)
(0.0979405543 0.000852147252 0)
(0.0978696744 0.000871850169 0)
(0.0977963939 0.000889467453 0)
(0.0977208128 0.000904952593 0)
(0.0976430238 0.000918271245 0)
(0.0975631256 0.000929270152 0)
(0.0974812509 0.000937671765 0)
(0.097397586 0.000943134 0)
(0.097312379 0.000945313904 0)
(0.0972259356 0.000943904323 0)
(0.0971386126 0.000938642912 0)
(0.0970508101 0.000929307187 0)
(0.0969629653 0.000915708459 0)
(0.0968755481 0.000897690184 0)
(0.096789056 0.000875130165 0)
(0.0967040095 0.000847943753 0)
(0.096620947 0.000816085818 0)
(0.0965404213 0.000779550742 0)
(0.0964629948 0.000738370708 0)
(0.0963892365 0.000692612916 0)
(0.0963197173 0.000642376482 0)
(0.096255006 0.000587789555 0)
(0.0961956654 0.000529006974 0)
(0.0961422486 0.000466208587 0)
(0.0960952971 0.000399598481 0)
(0.096055339 0.000329404814 0)
(0.0960228832 0.000255878495 0)
(0.0959984143 0.000179291121 0)
(0.0959824106 9.99201482e-05 0)
(0.0959754677 1.81125548e-05 0)
(0.0959780151 -6.5506648e-05 0)
(0.0959903176 -0.000150556319 0)
(0.0960127447 -0.000236633272 0)
(0.0960455831 -0.000323227228 0)
(0.0960890239 -0.000409774711 0)
(0.0961431775 -0.000495675264 0)
(0.0962080604 -0.000580285377 0)
(0.0962835838 -0.00066292048 0)
(0.096369545 -0.000742868162 0)
(0.0964656201 -0.00081940318 0)
(0.0965713591 -0.000891802865 0)
(0.0966861864 -0.000959364411 0)
(0.096809405 -0.00102142304 0)
(0.0969402041 -0.00107736982 0)
(0.0970776702 -0.00112666865 0)
(0.0972208018 -0.00116887186 0)
(0.0973685267 -0.00120363368 0)
(0.0975197218 -0.00123072062 0)
(0.0976732349 -0.00125001807 0)
(0.0978279074 -0.00126153272 0)
(0.0979825969 -0.00126539055 0)
(0.0981361993 -0.00126183072 0)
(0.0982876689 -0.00125119591 0)
(0.0984360354 -0.00123391975 0)
(0.0985804183 -0.00121051218 0)
(0.0987200375 -0.00118154339 0)
(0.0988542199 -0.00114762731 0)
(0.0989824033 -0.00110940512 0)
(0.0991041363 -0.00106752954 0)
(0.0992190756 -0.0010226504 0)
(0.0993269814 -0.000975401693 0)
(0.0994277099 -0.000926390611 0)
(0.0995212055 -0.000876188422 0)
(0.0996074914 -0.000825323319 0)
(0.0996866603 -0.00077427519 0)
(0.0997588651 -0.000723472282 0)
(0.0998243103 -0.000673289726 0)
(0.0998832441 -0.000624050599 0)
(0.0999359495 -0.000576029211 0)
(0.0999827353 -0.000529454571 0)
(0.100023928 -0.000484513211 0)
(0.100059862 -0.000441351897 0)
(0.100090877 -0.000400080703 0)
(0.100117313 -0.00036077645 0)
(0.100139503 -0.000323486397 0)
(0.100157775 -0.000288231984 0)
(0.100172443 -0.000255011821 0)
(0.100183813 -0.000223804893 0)
(0.100192174 -0.000194574001 0)
(0.100197802 -0.000167268914 0)
(0.100200958 -0.000141829058 0)
(0.100201886 -0.000118185763 0)
(0.100200816 -9.62639544e-05 0)
(0.100197962 -7.59822952e-05 0)
(0.100193524 -5.72510341e-05 0)
(0.100187696 -3.99737716e-05 0)
(0.10018068 -2.40630013e-05 0)
(0.100172731 -9.4882767e-06 0)
(0.100163934 3.77894883e-06 0)
(0.100154338 1.57757433e-05 0)
(0.100144078 2.65152386e-05 0)
(0.100133215 3.60700481e-05 0)
(0.100121836 4.4527969e-05 0)
(0.100110006 5.1972583e-05 0)
(0.100097783 5.85056278e-05 0)
(0.100085233 6.42252741e-05 0)
(0.100072426 6.92163299e-05 0)
(0.100059425 7.35528719e-05 0)
(0.100046283 7.729915e-05 0)
(0.100033044 8.05116252e-05 0)
(0.100019754 8.32402369e-05 0)
(0.100006457 8.5527717e-05 0)
(0.0999931988 8.74097208e-05 0)
(0.0999800196 8.89166774e-05 0)
(0.0999669551 9.00759867e-05 0)
(0.0999540359 9.0913444e-05 0)
(0.0999412868 9.145381e-05 0)
(0.0999287281 9.17211202e-05 0)
(0.0999163758 9.17387475e-05 0)
(0.0999042434 9.15291612e-05 0)
(0.0998923422 9.1113645e-05 0)
(0.0998806816 9.05121154e-05 0)
(0.0998692696 8.97430149e-05 0)
(0.0998581129 8.88232792e-05 0)
(0.0998472173 8.77683706e-05 0)
(0.099836588 8.65923406e-05 0)
(0.0998262293 8.53079057e-05 0)
(0.0998161447 8.392654e-05 0)
(0.0998063373 8.24585779e-05 0)
(0.0997968095 8.09133176e-05 0)
(0.0997875631 7.92991198e-05 0)
(0.0997785994 7.76235082e-05 0)
(0.0997699195 7.58932653e-05 0)
(0.0997615235 7.41145212e-05 0)
(0.0997534116 7.22928322e-05 0)
(0.0997455834 7.04332445e-05 0)
(0.0997380384 6.85403384e-05 0)
(0.0997307757 6.66182512e-05 0)
(0.0997237944 6.46706843e-05 0)
(0.0997170933 6.27008995e-05 0)
(0.0997106715 6.07117135e-05 0)
(0.0997045278 5.87054708e-05 0)
(0.0996986617 5.66840628e-05 0)
(0.0996930703 5.4648683e-05 0)
(0.09968776 5.26007005e-05 0)
(0.0996827047 5.05372864e-05 0)
(0.0996779907 4.84721799e-05 0)
(0.0996733186 4.63342778e-05 0)
(0.0996697682 4.44638078e-05 0)
(0.0996638445 4.12024286e-05 0)
(0.0999981273 5.99733458e-05 0)
(0.0999823904 0.00017907775 0)
(0.0999493503 0.000289883086 0)
(0.0998996187 0.000383455517 0)
(0.0998370455 0.00045239277 0)
(0.099766064 0.000491546131 0)
(0.0996909471 0.000499573875 0)
(0.0996158446 0.000478869026 0)
(0.0995446858 0.000433314848 0)
(0.0994810206 0.000366489153 0)
(0.0994279054 0.000282292651 0)
(0.0993877096 0.000187227195 0)
(0.0993616491 9.20427584e-05 0)
(0.099349234 1.11139838e-05 0)
(0.0993481226 -4.09017378e-05 0)
(0.0993537385 -5.4029744e-05 0)
(0.099360025 -2.45140841e-05 0)
(0.0993611082 4.3766544e-05 0)
(0.0993521115 0.000140340248 0)
(0.0993297022 0.000250976633 0)
(0.0992924834 0.000360934693 0)
(0.099241129 0.0004573291 0)
(0.0991780497 0.000530584509 0)
(0.0991068241 0.000574965463 0)
(0.0990316336 0.000588324909 0)
(0.0989568011 0.000571424323 0)
(0.0988864498 0.000527233158 0)
(0.0988242588 0.000460516011 0)
(0.0987732515 0.000377807709 0)
(0.0987355459 0.0002876072 0)
(0.0987120427 0.000200386072 0)
(0.0987021153 0.000127952366 0)
(0.0987034192 8.19203506e-05 0)
(0.098711925 7.14548079e-05 0)
(0.0987223301 0.000100923759 0)
(0.0987289437 0.000168296747 0)
(0.0987267343 0.000264955483 0)
(0.0987121926 0.00037727911 0)
(0.0986838931 0.00048971394 0)
(0.0986426125 0.000588452895 0)
(0.0985909171 0.000664573955 0)
(0.0985323284 0.000715618492 0)
(0.0984703418 0.00074514361 0)
(0.0984076099 0.000760552767 0)
(0.0983455212 0.000770146899 0)
(0.0982842367 0.000780542197 0)
(0.0982230695 0.000795290776 0)
(0.0981609922 0.000814908749 0)
(0.0980970637 0.000837906987 0)
(0.0980306559 0.000862121198 0)
(0.097961479 0.00088572731 0)
(0.0978894823 0.000907665798 0)
(0.0978147281 0.000927551343 0)
(0.0977373049 0.000945336776 0)
(0.0976572989 0.000960994632 0)
(0.0975748079 0.000974353014 0)
(0.0974899695 0.000985086221 0)
(0.0974029818 0.000992786892 0)
(0.0973141112 0.00099704425 0)
(0.0972236889 0.000997489734 0)
(0.0971321032 0.000993808576 0)
(0.0970397917 0.000985733825 0)
(0.0969472343 0.000973038537 0)
(0.0968549481 0.000955533 0)
(0.0967634808 0.000933066367 0)
(0.0966734045 0.000905529419 0)
(0.0965853074 0.000872856064 0)
(0.0964997867 0.000835023095 0)
(0.0964174413 0.000792048811 0)
(0.0963388671 0.000743991076 0)
(0.0962646546 0.000690945162 0)
(0.0961953886 0.000633041274 0)
(0.0961316487 0.000570441731 0)
(0.09607401 0.000503338266 0)
(0.0960230423 0.000431950107 0)
(0.095979307 0.000356523159 0)
(0.0959433548 0.000277332264 0)
(0.095915724 0.000194688554 0)
(0.0958969333 0.000108945115 0)
(0.0958874194 2.04764731e-05 0)
(0.0958876706 -7.04044735e-05 0)
(0.0958982145 -0.000163223643 0)
(0.0959194443 -0.000257479782 0)
(0.095951683 -0.00035262531 0)
(0.0959951839 -0.000448040187 0)
(0.0960501141 -0.00054303947 0)
(0.0961165385 -0.000636880785 0)
(0.0961944062 -0.000728771157 0)
(0.0962835413 -0.000817878106 0)
(0.0963836331 -0.000903344274 0)
(0.0964942285 -0.000984305265 0)
(0.0966147293 -0.00105991111 0)
(0.0967443929 -0.00112935041 0)
(0.0968823392 -0.00119187526 0)
(0.0970275621 -0.00124682546 0)
(0.0971789463 -0.00129364995 0)
(0.0973352886 -0.00133192448 0)
(0.0974953235 -0.00136136435 0)
(0.0976577501 -0.001381832 0)
(0.0978212615 -0.00139333904 0)
(0.0979845721 -0.00139604313 0)
(0.0981464451 -0.00139023979 0)
(0.0983057162 -0.00137634981 0)
(0.0984613139 -0.00135490309 0)
(0.098612276 -0.00132651977 0)
(0.0987577612 -0.00129188978 0)
(0.0988970562 -0.00125175185 0)
(0.0990295785 -0.00120687283 0)
(0.0991548755 -0.00115802831 0)
(0.0992726192 -0.00110598494 0)
(0.0993825998 -0.00105148507 0)
(0.0994847155 -0.000995233935 0)
(0.099578962 -0.000937889424 0)
(0.0996654205 -0.000880054433 0)
(0.0997442463 -0.000822271727 0)
(0.0998156568 -0.000765021151 0)
(0.0998799209 -0.00070871899 0)
(0.0999373481 -0.000653719515 0)
(0.099988279 -0.000600318255 0)
(0.100033076 -0.000548756021 0)
(0.100072113 -0.000499223062 0)
(0.100105772 -0.000451863315 0)
(0.100134431 -0.000406778809 0)
(0.100158465 -0.00036403418 0)
(0.100178238 -0.000323661136 0)
(0.100194102 -0.000285662758 0)
(0.100206395 -0.000250017468 0)
(0.100215438 -0.000216682947 0)
(0.100221537 -0.000185600074 0)
(0.100224984 -0.000156696817 0)
(0.100226052 -0.000129891915 0)
(0.100224999 -0.000105098155 0)
(0.100222065 -8.22252087e-05 0)
(0.100217478 -6.11823888e-05 0)
(0.100211448 -4.18818816e-05 0)
(0.100204154 -2.42365944e-05 0)
(0.100195693 -8.13839367e-06 0)
(0.100186168 6.57049308e-06 0)
(0.100175827 1.98719587e-05 0)
(0.100164881 3.18556394e-05 0)
(0.1001534 4.25716111e-05 0)
(0.100141431 5.2105399e-05 0)
(0.100129029 6.05427051e-05 0)
(0.100116253 6.79618087e-05 0)
(0.10010316 7.44472733e-05 0)
(0.100089807 8.00817087e-05 0)
(0.10007625 8.49398529e-05 0)
(0.100062551 8.90891083e-05 0)
(0.100048774 9.25914004e-05 0)
(0.100034976 9.5505523e-05 0)
(0.100021208 9.7887683e-05 0)
(0.100007508 9.97904014e-05 0)
(0.0999939063 0.000101261584 0)