/*--------------------------------*- C++ -*----------------------------------*\
| =========                 |                                                 |
| \\      /  F ield         | OpenFOAM: The Open Source CFD Toolbox           |
|  \\    /   O peration     | Version:  v2012                                 |
|   \\  /    A nd           | Website:  www.openfoam.com                      |
|    \\/     M anipulation  |                                                 |
\*---------------------------------------------------------------------------*/
FoamFile
{
    version     2.0;
    format      ascii;
    class       volVectorField;
    location    "2.84";
    object      H;
}
// * * * * * * * * * * * * * * * * * * * * * * * * * * * * * * * * * * * * * //

dimensions      [0 1 -2 0 0 0 0];


internalField   nonuniform List<vector> 
28416
(
(149.740715 -0.0154861338 0)
(149.756476 -0.0520262315 0)
(149.795497 -0.0920518819 0)
(149.854805 -0.128847046 0)
(149.92983 -0.153059644 0)
(150.01338 -0.157295891 0)
(150.097229 -0.138876731 0)
(150.173046 -0.0997565887 0)
(150.232835 -0.0448372243 0)
(150.271133 0.0204348945 0)
(150.29258 0.0919273242 0)
(150.299186 0.158584126 0)
(150.289436 0.21322457 0)
(150.265284 0.252185917 0)
(150.230737 0.27355584 0)
(150.190012 0.277291248 0)
(150.147251 0.26493759 0)
(150.106253 0.239058386 0)
(150.070251 0.202946467 0)
(150.041734 0.160766221 0)
(150.02215 0.117874289 0)
(150.011509 0.0808048721 0)
(150.007755 0.0564576178 0)
(150.006883 0.0509028515 0)
(150.00345 0.0676044148 0)
(149.990847 0.106492529 0)
(149.962487 0.164117901 0)
(149.913336 0.234339661 0)
(149.840616 0.309536825 0)
(149.743884 0.382030209 0)
(149.624786 0.445225104 0)
(149.48654 0.494279493 0)
(149.333275 0.526360723 0)
(149.169448 0.540622082 0)
(148.99944 0.538027204 0)
(148.82729 0.521122042 0)
(148.6565 0.493807181 0)
(148.489815 0.461104309 0)
(148.328918 0.428853871 0)
(148.174059 0.403259187 0)
(148.023734 0.390227865 0)
(147.874619 0.394541618 0)
(147.721937 0.418977616 0)
(147.560282 0.463584604 0)
(147.384698 0.525369018 0)
(147.191692 0.598618991 0)
(146.979894 0.675928876 0)
(146.750228 0.749722533 0)
(146.505569 0.813846948 0)
(146.250021 0.86474338 0)
(145.988019 0.901840172 0)
(145.723526 0.927095363 0)
(145.459493 0.943924814 0)
(145.197711 0.955947021 0)
(144.938984 0.9659807 0)
(144.683519 0.97556267 0)
(144.431332 0.985008159 0)
(144.182554 0.99383199 0)
(143.937551 1.00126619 0)
(143.696907 1.00665505 0)
(143.461311 1.00963 0)
(143.231446 1.01008885 0)
(143.007914 1.00807329 0)
(142.791206 1.00364164 0)
(142.581724 0.996793603 0)
(142.3798 0.987455172 0)
(142.185724 0.975501201 0)
(141.99976 0.960786897 0)
(141.822154 0.94317011 0)
(141.65313 0.92252034 0)
(141.492904 0.898719066 0)
(141.341682 0.871657731 0)
(141.199673 0.841237509 0)
(141.067095 0.807371963 0)
(140.944189 0.769991639 0)
(140.831226 0.729049159 0)
(140.728528 0.684522847 0)
(140.636506 0.636415825 0)
(140.555692 0.584734974 0)
(140.486669 0.529453404 0)
(140.429962 0.470507755 0)
(140.386072 0.407784617 0)
(140.355362 0.341037921 0)
(140.337899 0.270031077 0)
(140.333511 0.194713478 0)
(140.34184 0.115391105 0)
(140.360424 0.0330914074 0)
(140.392667 -0.0475794866 0)
(140.444259 -0.127323132 0)
(140.516309 -0.208456662 0)
(140.607035 -0.29130462 0)
(140.715961 -0.375405171 0)
(140.843426 -0.460361872 0)
(140.989411 -0.545696563 0)
(141.153644 -0.630769394 0)
(141.335805 -0.714860402 0)
(141.535444 -0.797208589 0)
(141.751915 -0.877012448 0)
(141.98438 -0.953437754 0)
(142.231804 -1.0256355 0)
(142.492963 -1.09276502 0)
(142.766457 -1.15402146 0)
(143.050718 -1.20866557 0)
(143.344039 -1.25605191 0)
(143.644591 -1.29565247 0)
(143.950458 -1.32707399 0)
(144.259662 -1.35006854 0)
(144.570206 -1.36453784 0)
(144.88011 -1.37053198 0)
(145.187446 -1.36824363 0)
(145.490378 -1.35799794 0)
(145.787192 -1.34023909 0)
(146.076325 -1.31551362 0)
(146.35638 -1.2844515 0)
(146.626152 -1.24774561 0)
(146.884622 -1.20613083 0)
(147.130968 -1.16036336 0)
(147.364564 -1.11120153 0)
(147.584964 -1.05938847 0)
(147.791897 -1.00563723 0)
(147.985252 -0.95061859 0)
(148.165063 -0.89495146 0)
(148.331487 -0.839195979 0)
(148.484794 -0.783849064 0)
(148.625345 -0.729342425 0)
(148.753579 -0.676042806 0)
(148.869991 -0.624253781 0)
(148.975126 -0.574217997 0)
(149.069558 -0.526119596 0)
(149.153886 -0.480088157 0)
(149.228725 -0.436205449 0)
(149.2947 -0.394513285 0)
(149.352431 -0.355018858 0)
(149.402532 -0.317697607 0)
(149.445607 -0.282498252 0)
(149.482253 -0.249352307 0)
(149.513057 -0.21818358 0)
(149.538584 -0.188913071 0)
(149.559377 -0.161463266 0)
(149.575962 -0.135767503 0)
(149.588838 -0.1117815 0)
(149.598463 -0.0894927547 0)
(149.60523 -0.0689235744 0)
(149.609451 -0.0501196194 0)
(149.611313 -0.0331125824 0)
(149.610844 -0.0178515625 0)
(149.607955 -0.00409582128 0)
(149.603591 0.00856914898 0)
(149.59816 0.0199281775 0)
(149.591434 0.0299462159 0)
(149.583344 0.0387807148 0)
(149.574058 0.0465690289 0)
(149.563739 0.0534205828 0)
(149.55252 0.059433744 0)
(149.54053 0.0646946233 0)
(149.527894 0.0692783608 0)
(149.514723 0.0732510991 0)
(149.50112 0.0766708385 0)
(149.487175 0.0795879989 0)
(149.472971 0.0820462974 0)
(149.458579 0.0840839441 0)
(149.444063 0.0857349509 0)
(149.429476 0.0870303306 0)
(149.414864 0.0879989932 0)
(149.400269 0.0886682855 0)
(149.385724 0.0890642206 0)
(149.371261 0.0892115197 0)
(149.356905 0.0891335566 0)
(149.34268 0.0888522696 0)
(149.328608 0.0883880618 0)
(149.314707 0.0877597055 0)
(149.300993 0.0869842639 0)
(149.287483 0.0860770421 0)
(149.274188 0.0850515894 0)
(149.26112 0.0839197715 0)
(149.248289 0.082691911 0)
(149.235703 0.0813769893 0)
(149.223368 0.0799828893 0)
(149.211291 0.0785165766 0)
(149.199475 0.0769841987 0)
(149.187926 0.0753912433 0)
(149.176646 0.0737426518 0)
(149.16564 0.0720428959 0)
(149.154907 0.0702954587 0)
(149.144469 0.068504364 0)
(149.134275 0.0666650547 0)
(149.12454 0.0648014965 0)
(149.114594 0.0627925112 0)
(149.106963 0.0611089576 0)
(149.090795 0.0575884607 0)
(149.742256 -0.0312275158 0)
(149.754157 -0.104058757 0)
(149.789679 -0.182544494 0)
(149.848873 -0.255076848 0)
(149.928179 -0.305499373 0)
(150.019791 -0.320860316 0)
(150.114266 -0.296116312 0)
(150.201954 -0.234136346 0)
(150.274272 -0.143296867 0)
(150.326412 -0.0343962377 0)
(150.355278 0.0810612053 0)
(150.358255 0.188707505 0)
(150.339467 0.278332855 0)
(150.304016 0.343493538 0)
(150.256858 0.381086242 0)
(150.203341 0.391123578 0)
(150.148691 0.375928144 0)
(150.097658 0.339252594 0)
(150.054371 0.285905876 0)
(150.022139 0.222088004 0)
(150.003035 0.156032748 0)
(149.997245 0.0981099979 0)
(150.00253 0.0597084997 0)
(150.014048 0.0511746204 0)
(150.024809 0.078795562 0)
(150.026686 0.142830261 0)
(150.011585 0.237642922 0)
(149.97284 0.35308262 0)
(149.906351 0.476629483 0)
(149.811053 0.595804684 0)
(149.688723 0.700128754 0)
(149.543356 0.782221676 0)
(149.380324 0.838072711 0)
(149.205558 0.866742301 0)
(149.02492 0.869828073 0)
(148.843761 0.850978066 0)
(148.666619 0.81559505 0)
(148.496931 0.770697764 0)
(148.336698 0.724746999 0)
(148.186124 0.687171384 0)
(148.043337 0.667391499 0)
(147.904359 0.67334802 0)
(147.763455 0.709818261 0)
(147.613914 0.777024624 0)
(147.449194 0.870082981 0)
(147.264187 0.979655218 0)
(147.056282 1.09379062 0)
(146.825889 1.20050474 0)
(146.576254 1.29034549 0)
(146.312597 1.35817203 0)
(146.040874 1.4036399 0)
(145.766529 1.4303438 0)
(145.493605 1.44403309 0)
(145.22441 1.45059489 0)
(144.959734 1.4544871 0)
(144.699409 1.45802956 0)
(144.442956 1.46156916 0)
(144.190075 1.46421188 0)
(143.940867 1.46468573 0)
(143.695819 1.46198025 0)
(143.455633 1.45561129 0)
(143.221045 1.44556177 0)
(142.992695 1.43206024 0)
(142.771082 1.41535958 0)
(142.556584 1.39560802 0)
(142.3495 1.37282299 0)
(142.150085 1.34692816 0)
(141.958581 1.31780488 0)
(141.775219 1.28532737 0)
(141.60022 1.24937498 0)
(141.433804 1.20983007 0)
(141.276186 1.16657244 0)
(141.127591 1.11947727 0)
(140.988264 1.06841778 0)
(140.858477 1.01327062 0)
(140.73854 0.953920753 0)
(140.628813 0.890262783 0)
(140.529716 0.822194742 0)
(140.44172 0.749588076 0)
(140.365306 0.672246294 0)
(140.300887 0.589921852 0)
(140.248738 0.502356783 0)
(140.209073 0.409282527 0)
(140.182186 0.31063051 0)
(140.16853 0.20665136 0)
(140.169015 0.0979951941 0)
(140.186544 -0.0146495531 0)
(140.222429 -0.128940741 0)
(140.273877 -0.244196176 0)
(140.343088 -0.361583497 0)
(140.431366 -0.481160178 0)
(140.538914 -0.602267403 0)
(140.665966 -0.724276085 0)
(140.81271 -0.846485762 0)
(140.97912 -0.968002969 0)
(141.164997 -1.08780048 0)
(141.369968 -1.20476533 0)
(141.593443 -1.31771501 0)
(141.834602 -1.42542353 0)
(142.09239 -1.52665679 0)
(142.365518 -1.6202088 0)
(142.652468 -1.70493833 0)
(142.951512 -1.77980586 0)
(143.260734 -1.84390879 0)
(143.578061 -1.89651256 0)
(143.901301 -1.93707618 0)
(144.228183 -1.96527041 0)
(144.556412 -1.98098782 0)
(144.883709 -1.9843439 0)
(145.207868 -1.97566952 0)
(145.526796 -1.95549528 0)
(145.838555 -1.92452919 0)
(146.141395 -1.88362895 0)
(146.433773 -1.83377085 0)
(146.71438 -1.77601698 0)
(146.982137 -1.71148238 0)
(147.236202 -1.64130363 0)
(147.475961 -1.56661009 0)
(147.70102 -1.48849868 0)
(147.911181 -1.40801261 0)
(148.10643 -1.32612446 0)
(148.286914 -1.24372364 0)
(148.452915 -1.16160789 0)
(148.604834 -1.08047858 0)
(148.743165 -1.00093926 0)
(148.868477 -0.923496938 0)
(148.981394 -0.848565539 0)
(149.082585 -0.776470875 0)
(149.17274 -0.70745683 0)
(149.252565 -0.641692932 0)
(149.32277 -0.57928286 0)
(149.384056 -0.520273294 0)
(149.437117 -0.464662957 0)
(149.482629 -0.412411179 0)
(149.521245 -0.363445739 0)
(149.553588 -0.317671139 0)
(149.580255 -0.2749794 0)
(149.601812 -0.235260443 0)
(149.618788 -0.198407025 0)
(149.631671 -0.164316648 0)
(149.640898 -0.132894153 0)
(149.646851 -0.104049716 0)
(149.649858 -0.0776864305 0)
(149.65022 -0.0536920458 0)
(149.648233 -0.0319397777 0)
(149.644232 -0.0122718934 0)
(149.638624 0.00556021072 0)
(149.631649 0.021869952 0)
(149.623239 0.0365128022 0)
(149.613674 0.0494720212 0)
(149.603082 0.0609063251 0)
(149.591577 0.0709619967 0)
(149.579275 0.0797646019 0)
(149.566281 0.0874343461 0)
(149.5527 0.0940811463 0)
(149.538631 0.0998035705 0)
(149.524169 0.104690615 0)
(149.509395 0.108822646 0)
(149.494389 0.112271886 0)
(149.479218 0.115103076 0)
(149.463945 0.117374295 0)
(149.448622 0.119137811 0)
(149.433298 0.120440895 0)
(149.418014 0.121326517 0)
(149.402805 0.121833923 0)
(149.387703 0.121999087 0)
(149.372735 0.121855055 0)
(149.357924 0.121432212 0)
(149.34329 0.120758478 0)
(149.328852 0.119859457 0)
(149.314623 0.118758545 0)
(149.300618 0.117477028 0)
(149.286847 0.116034165 0)
(149.273319 0.114447288 0)
(149.260045 0.112731911 0)
(149.247029 0.110901872 0)
(149.234277 0.108969478 0)
(149.221795 0.106945663 0)
(149.209585 0.104840053 0)
(149.197652 0.102660941 0)
(149.185996 0.100415359 0)
(149.17462 0.0981091194 0)
(149.163527 0.0957468943 0)
(149.152714 0.0933313988 0)
(149.142199 0.090865898 0)
(149.131925 0.0883406526 0)
(149.122106 0.0857884431 0)
(149.112007 0.0830391881 0)
(149.104263 0.0807544332 0)
(149.087398 0.0760805443 0)
(149.742806 -0.0370825727 0)
(149.757055 -0.124142357 0)
(149.794621 -0.218189257 0)
(149.854494 -0.306224411 0)
(149.933108 -0.369667434 0)
(150.02311 -0.393174444 0)
(150.115616 -0.370297368 0)
(150.201594 -0.303717891 0)
(150.272822 -0.20279331 0)
(150.323007 -0.0810624752 0)
(150.351109 0.0451629354 0)
(150.358286 0.163457231 0)
(150.344545 0.263290081 0)
(150.313328 0.336914341 0)
(150.269773 0.380613494 0)
(150.219315 0.394178566 0)
(150.167145 0.379924529 0)
(150.117993 0.341769292 0)
(150.075945 0.284828556 0)
(150.044249 0.215810999 0)
(150.024957 0.14377477 0)
(150.018433 0.0802817793 0)
(150.022842 0.0381549498 0)
(150.03367 0.0288316698 0)
(150.043851 0.0596324324 0)
(150.045152 0.131985996 0)
(150.029833 0.24041726 0)
(149.991737 0.373754688 0)
(149.927017 0.51774955 0)
(149.834505 0.657911315 0)
(149.715634 0.781826309 0)
(149.57394 0.880552625 0)
(149.414338 0.949056311 0)
(149.242403 0.985938057 0)
(149.063759 0.992821933 0)
(148.883637 0.97375571 0)
(148.706546 0.93483005 0)
(148.535976 0.884010823 0)
(148.374069 0.830968533 0)
(148.221246 0.786582962 0)
(148.075878 0.761873101 0)
(147.934205 0.766331036 0)
(147.790675 0.805948013 0)
(147.638761 0.881497732 0)
(147.472104 0.987734952 0)
(147.285727 1.1139843 0)
(147.077001 1.2461747 0)
(146.84613 1.36986372 0)
(146.596004 1.47339321 0)
(146.331468 1.55020857 0)
(146.058198 1.59963837 0)
(145.781536 1.62598136 0)
(145.505601 1.63635536 0)
(145.232906 1.63816506 0)
(144.964487 1.63707619 0)
(144.700398 1.63605698 0)
(144.440305 1.63554575 0)
(144.183975 1.63437121 0)
(143.931515 1.63086651 0)
(143.683379 1.62370901 0)
(143.440234 1.6122762 0)
(143.202786 1.59657453 0)
(142.971658 1.57694893 0)
(142.747338 1.55378768 0)
(142.530195 1.52734719 0)
(142.320513 1.49771365 0)
(142.118532 1.46485002 0)
(141.924472 1.42866338 0)
(141.738546 1.389051 0)
(141.560955 1.34591571 0)
(141.391902 1.29916129 0)
(141.231589 1.24868284 0)
(141.080228 1.19436153 0)
(140.938055 1.13606581 0)
(140.805332 1.07365619 0)
(140.682359 1.00699025 0)
(140.569479 0.935924878 0)
(140.467082 0.860314435 0)
(140.375597 0.780004407 0)
(140.295479 0.694832136 0)
(140.2272 0.604653529 0)
(140.171245 0.509403183 0)
(140.128204 0.409176828 0)
(140.09876 0.304230106 0)
(140.083584 0.194922438 0)
(140.082808 0.0815723716 0)
(140.09647 -0.0355163398 0)
(140.126982 -0.157155476 0)
(140.175328 -0.282129072 0)
(140.242479 -0.409748223 0)
(140.328835 -0.539851536 0)
(140.43481 -0.671982571 0)
(140.560872 -0.805436369 0)
(140.707353 -0.939374473 0)
(140.874377 -1.07280304 0)
(141.061879 -1.20457947 0)
(141.26959 -1.33344593 0)
(141.497001 -1.45805478 0)
(141.743343 -1.57699592 0)
(142.007571 -1.68883349 0)
(142.288365 -1.79214929 0)
(142.584134 -1.88558989 0)
(142.893029 -1.96791543 0)
(143.212972 -2.03804667 0)
(143.541691 -2.0951066 0)
(143.876773 -2.13845375 0)
(144.215707 -2.16770521 0)
(144.555953 -2.18274832 0)
(144.894996 -2.18374069 0)
(145.230407 -2.17109921 0)
(145.559891 -2.14547915 0)
(145.881343 -2.107745 0)
(146.192876 -2.0589351 0)
(146.49285 -2.00022215 0)
(146.779894 -1.93287219 0)
(147.052905 -1.85820387 0)
(147.311049 -1.77755018 0)
(147.55375 -1.69222397 0)
(147.780675 -1.60348838 0)
(147.991708 -1.51253263 0)
(148.186929 -1.42045358 0)
(148.366588 -1.32824265 0)
(148.531075 -1.23677786 0)
(148.680896 -1.14682036 0)
(148.816653 -1.05901484 0)
(148.939014 -0.973893113 0)
(149.048695 -0.89188013 0)
(149.146445 -0.813302001 0)
(149.233028 -0.738395139 0)
(149.309209 -0.667315961 0)
(149.375751 -0.600150801 0)
(149.433403 -0.536926004 0)
(149.482887 -0.477618495 0)
(149.524899 -0.422165559 0)
(149.560109 -0.370472868 0)
(149.589155 -0.322421919 0)
(149.612639 -0.277875067 0)
(149.631125 -0.236679285 0)
(149.645146 -0.19867099 0)
(149.655213 -0.163677614 0)
(149.661809 -0.131523768 0)
(149.665391 -0.102048761 0)
(149.666378 -0.0751131034 0)
(149.665117 -0.0505842288 0)
(149.661851 -0.0283276142 0)
(149.656748 -0.00823718707 0)
(149.650128 0.00978358088 0)
(149.642016 0.0259185559 0)
(149.632586 0.0403818205 0)
(149.622041 0.0532726306 0)
(149.610495 0.0646962545 0)
(149.59808 0.0747668645 0)
(149.584924 0.0835947345 0)
(149.571143 0.0912887979 0)
(149.55684 0.0979535212 0)
(149.542114 0.103685338 0)
(149.527056 0.10857226 0)
(149.511746 0.112694237 0)
(149.496259 0.116123551 0)
(149.48066 0.118925406 0)
(149.465005 0.121158675 0)
(149.449344 0.122876689 0)
(149.43372 0.12412798 0)
(149.418169 0.124956923 0)
(149.402725 0.12540424 0)
(149.387414 0.125507382 0)
(149.37226 0.125300793 0)
(149.357283 0.124816107 0)
(149.342502 0.124082292 0)
(149.327932 0.123125765 0)
(149.313586 0.1219705 0)
(149.299477 0.120638129 0)
(149.285615 0.119148057 0)
(149.272007 0.117517584 0)
(149.258662 0.115762058 0)
(149.245585 0.113895037 0)
(149.23278 0.111928456 0)
(149.220252 0.109872798 0)
(149.208002 0.107737223 0)
(149.196034 0.105529649 0)
(149.184346 0.103256832 0)
(149.172941 0.100924364 0)
(149.16182 0.0985367799 0)
(149.150977 0.0960967103 0)
(149.14043 0.0936078565 0)
(149.130119 0.091060697 0)
(149.120256 0.0884921996 0)
(149.110133 0.0857319328 0)
(149.102352 0.0834609266 0)
(149.085787 0.0788391942 0)
(149.742658 -0.0470753755 0)
(149.756147 -0.158774007 0)
(149.793549 -0.280635052 0)
(149.854886 -0.395727792 0)
(149.937081 -0.479762812 0)
(150.032605 -0.512595419 0)
(150.13182 -0.485571146 0)
(150.224656 -0.401910791 0)
(150.301905 -0.273605306 0)
(150.356614 -0.117882174 0)
(150.386358 0.0464923684 0)
(150.393092 0.201029285 0)
(150.376695 0.33059147 0)
(150.341405 0.425949278 0)
(150.292817 0.482802032 0)
(150.236937 0.50096323 0)
(150.179655 0.483351656 0)
(150.126395 0.434852193 0)
(150.081878 0.361836946 0)
(150.049839 0.272719447 0)
(150.032578 0.178986909 0)
(150.03029 0.0954473628 0)
(150.040439 0.0388164829 0)
(150.05788 0.0245880235 0)
(150.075859 0.0623403056 0)
(150.086143 0.15362399 0)
(150.079704 0.291097866 0)
(150.048954 0.460403856 0)
(149.98914 0.643353336 0)
(149.898738 0.821483767 0)
(149.779281 0.979045549 0)
(149.634737 1.10478279 0)
(149.470677 1.19243637 0)
(149.293434 1.24031761 0)
(149.109421 1.25046559 0)
(148.924611 1.22785946 0)
(148.744149 1.17995746 0)
(148.571977 1.11654781 0)
(148.410437 1.04962296 0)
(148.259878 0.992834758 0)
(148.118383 0.960162324 0)
(147.981751 0.963752729 0)
(147.843855 1.0113433 0)
(147.697445 1.10402948 0)
(147.535346 1.23523416 0)
(147.351807 1.39147971 0)
(147.143664 1.55500545 0)
(146.910947 1.70761463 0)
(146.65676 1.83464931 0)
(146.386447 1.92788844 0)
(146.106321 1.9865098 0)
(145.822339 2.01593866 0)
(145.539105 2.02515312 0)
(145.259429 2.0235113 0)
(144.984468 2.01820518 0)
(144.71426 2.01304425 0)
(144.448385 2.00864981 0)
(144.186505 2.00359975 0)
(143.92864 1.99582699 0)
(143.675193 1.98368246 0)
(143.426804 1.96639418 0)
(143.184167 1.94398746 0)
(142.947891 1.91692383 0)
(142.718445 1.88572824 0)
(142.496169 1.85076375 0)
(142.281315 1.81217784 0)
(142.074088 1.76995738 0)
(141.87467 1.7240112 0)
(141.683239 1.6742278 0)
(141.499966 1.62049523 0)
(141.325026 1.56269594 0)
(141.1586 1.50069506 0)
(141.000885 1.434334 0)
(140.852107 1.36343203 0)
(140.712526 1.28779256 0)
(140.582443 1.20720993 0)
(140.462212 1.1214745 0)
(140.35223 1.03037569 0)
(140.252943 0.933704666 0)
(140.164838 0.831261574 0)
(140.088439 0.722869975 0)
(140.024294 0.608393727 0)
(139.972981 0.487753372 0)
(139.935093 0.360871133 0)
(139.911148 0.227697862 0)
(139.902007 0.0882739286 0)
(139.910205 -0.0568374069 0)
(139.937206 -0.206328149 0)
(139.982067 -0.359946958 0)
(140.045808 -0.517498024 0)
(140.129431 -0.678486865 0)
(140.233724 -0.842152812 0)
(140.359326 -1.00756976 0)
(140.506738 -1.17365705 0)
(140.676278 -1.33914919 0)
(140.86805 -1.50260016 0)
(141.081915 -1.66241279 0)
(141.317452 -1.81687181 0)
(141.573932 -1.96418318 0)
(141.850295 -2.10252322 0)
(142.145141 -2.23009438 0)
(142.456737 -2.34518448 0)
(142.783031 -2.44622726 0)
(143.121683 -2.53186114 0)
(143.470116 -2.6009823 0)
(143.825569 -2.65278868 0)
(144.185166 -2.68681141 0)
(144.545991 -2.70293172 0)
(144.90516 -2.70138198 0)
(145.259897 -2.68273116 0)
(145.607599 -2.64785615 0)
(145.945893 -2.59790164 0)
(146.272678 -2.53423144 0)
(146.586158 -2.45837488 0)
(146.884861 -2.37197169 0)
(147.167639 -2.27671825 0)
(147.433662 -2.17431774 0)
(147.682404 -2.06643613 0)
(147.913616 -1.95466515 0)
(148.127296 -1.84049271 0)
(148.323664 -1.72528103 0)
(148.503119 -1.61025197 0)
(148.666213 -1.49647885 0)
(148.813615 -1.38488403 0)
(148.946085 -1.27624129 0)
(149.064446 -1.17118189 0)
(149.16956 -1.07020335 0)
(149.262311 -0.973680074 0)
(149.343586 -0.881874958 0)
(149.414265 -0.794951768 0)
(149.475205 -0.712988687 0)
(149.527237 -0.635991636 0)
(149.571153 -0.563905703 0)
(149.607714 -0.496625223 0)
(149.637635 -0.434004616 0)
(149.661591 -0.375870056 0)
(149.680217 -0.322028828 0)
(149.694108 -0.272276055 0)
(149.703817 -0.226404962 0)
(149.709844 -0.184223696 0)
(149.712611 -0.1455607 0)
(149.712458 -0.110248618 0)
(149.709679 -0.0781150477 0)
(149.704564 -0.0489904871 0)
(149.697376 -0.0226951832 0)
(149.688483 0.000997374904 0)
(149.678526 0.0222204415 0)
(149.667443 0.0411928844 0)
(149.655285 0.0581063143 0)
(149.642207 0.0731004284 0)
(149.628356 0.0863262607 0)
(149.613849 0.0979364502 0)
(149.598798 0.108071494 0)
(149.583301 0.116863007 0)
(149.567448 0.124434659 0)
(149.551321 0.130900836 0)
(149.534992 0.13636651 0)
(149.518529 0.140927654 0)
(149.501991 0.144671673 0)
(149.485431 0.147677888 0)
(149.468898 0.150018136 0)
(149.452433 0.151757439 0)
(149.436074 0.152954683 0)
(149.419853 0.153663255 0)
(149.403798 0.153931651 0)
(149.387933 0.153803987 0)
(149.372278 0.153320454 0)
(149.356849 0.152517692 0)
(149.341663 0.151429102 0)
(149.326729 0.150085108 0)
(149.312058 0.148513369 0)
(149.297658 0.146738972 0)
(149.283534 0.144784599 0)
(149.269692 0.142670676 0)
(149.256136 0.14041553 0)
(149.242869 0.138035519 0)
(149.229892 0.135545168 0)
(149.217206 0.132957286 0)
(149.204814 0.130283055 0)
(149.192714 0.127532104 0)
(149.180906 0.124712574 0)
(149.16939 0.121831115 0)
(149.158166 0.118893089 0)
(149.147226 0.115901633 0)
(149.136587 0.112861503 0)
(149.126184 0.109761777 0)
(149.116232 0.106648934 0)
(149.105975 0.103317759 0)
(149.098097 0.100593696 0)
(149.080957 0.0950529618 0)
(149.742835 -0.0560281727 0)
(149.75707 -0.189361627 0)
(149.795568 -0.335190769 0)
(149.858135 -0.473979157 0)
(149.941422 -0.577482932 0)
(150.03781 -0.622006384 0)
(150.137853 -0.596876734 0)
(150.231812 -0.505070186 0)
(150.310768 -0.360018983 0)
(150.368184 -0.181833751 0)
(150.400775 0.00668806847 0)
(150.410459 0.183881933 0)
(150.396006 0.333456515 0)
(150.362413 0.444478739 0)
(150.315219 0.51167274 0)
(150.260364 0.534642957 0)
(150.203771 0.516513234 0)
(150.15091 0.462650578 0)
(150.106559 0.380184595 0)
(150.074573 0.278661597 0)
(150.057453 0.171234512 0)
(150.055893 0.0750036361 0)
(150.068396 0.00902810284 0)
(150.089839 -0.00912969882 0)
(150.111425 0.0328192712 0)
(150.124595 0.136752408 0)
(150.120504 0.294957782 0)
(150.092285 0.491280781 0)
(150.035389 0.704678723 0)
(149.948123 0.913585951 0)
(149.831723 1.09946557 0)
(149.68987 1.24893005 0)
(149.52791 1.35440112 0)
(149.352046 1.41365662 0)
(149.168646 1.42884651 0)
(148.983699 1.40555092 0)
(148.802404 1.35222795 0)
(148.628819 1.28004868 0)
(148.465479 1.20277626 0)
(148.312977 1.13617559 0)
(148.169597 1.09652528 0)
(148.03122 1.09815399 0)
(147.891688 1.15043584 0)
(147.743671 1.25511526 0)
(147.579899 1.40496732 0)
(147.394518 1.58453777 0)
(147.184219 1.77308656 0)
(146.948855 1.94907891 0)
(146.691362 2.09494563 0)
(146.416993 2.20065176 0)
(146.132086 2.26498823 0)
(145.842732 2.29431012 0)
(145.553736 2.2993614 0)
(145.268124 2.29145523 0)
(144.987229 2.27935916 0)
(144.711211 2.26776824 0)
(144.439717 2.25749592 0)
(144.172434 2.24684338 0)
(143.90939 2.23330282 0)
(143.650984 2.21486757 0)
(143.397851 2.19060871 0)
(143.150677 2.16058714 0)
(142.910058 2.12541308 0)
(142.676443 2.08578459 0)
(142.450141 2.04220445 0)
(142.231364 1.9949089 0)
(142.020272 1.9439323 0)
(141.817004 1.88920828 0)
(141.621692 1.83064113 0)
(141.434467 1.76813047 0)
(141.255467 1.70156443 0)
(141.08484 1.63080438 0)
(140.922756 1.55567639 0)
(140.769419 1.47597267 0)
(140.62507 1.39145961 0)
(140.489998 1.30188731 0)
(140.364541 1.20699815 0)
(140.249091 1.10653386 0)
(140.144092 1.00024236 0)
(140.050041 0.887886396 0)
(139.967489 0.769255055 0)
(139.897035 0.644177766 0)
(139.839342 0.512543038 0)
(139.795136 0.374316644 0)
(139.765232 0.229572698 0)
(139.750466 0.0785997992 0)
(139.753015 -0.0784132446 0)
(139.774157 -0.241436166 0)
(139.813572 -0.410061383 0)
(139.872517 -0.583760396 0)
(139.952071 -0.761939756 0)
(140.05319 -0.943825838 0)
(140.176743 -1.12841429 0)
(140.32347 -1.31447237 0)
(140.49392 -1.50053958 0)
(140.688411 -1.6849347 0)
(140.906982 -1.86577799 0)
(141.149353 -2.04102491 0)
(141.414879 -2.20851155 0)
(141.702523 -2.36601368 0)
(142.01083 -2.51131765 0)
(142.337935 -2.64229917 0)
(142.681572 -2.75700524 0)
(143.039111 -2.85373407 0)
(143.407618 -2.93110699 0)
(143.783925 -2.98812721 0)
(144.164719 -3.02422109 0)
(144.546635 -3.03925922 0)
(144.926351 -3.033556 0)
(145.300685 -3.00784851 0)
(145.666673 -2.96325675 0)
(146.021641 -2.90122899 0)
(146.363257 -2.82347658 0)
(146.689566 -2.73190286 0)
(146.999004 -2.62853128 0)
(147.290402 -2.51543626 0)
(147.562966 -2.39468037 0)
(147.816259 -2.2682602 0)
(148.050161 -2.13806204 0)
(148.264829 -2.00582786 0)
(148.460662 -1.87313164 0)
(148.63825 -1.74136495 0)
(148.798339 -1.61173079 0)
(148.94179 -1.48524427 0)
(149.069547 -1.36273894 0)
(149.182603 -1.24487714 0)
(149.281979 -1.13216335 0)
(149.368699 -1.02495964 0)
(149.443772 -0.923502186 0)
(149.508183 -0.827917971 0)
(149.562877 -0.738240924 0)
(149.608759 -0.654427114 0)
(149.64668 -0.576369254 0)
(149.677444 -0.503910812 0)
(149.701798 -0.436858326 0)
(149.720433 -0.374990601 0)
(149.733988 -0.318067964 0)
(149.743042 -0.265840943 0)
(149.748111 -0.218054109 0)
(149.749665 -0.174448972 0)
(149.748154 -0.134765823 0)
(149.744037 -0.0987417468 0)
(149.737736 -0.0661153996 0)
(149.729606 -0.0366347498 0)
(149.719957 -0.0100691645 0)
(149.709182 0.0138154111 0)
(149.697224 0.0352744005 0)
(149.684115 0.054423376 0)
(149.670071 0.0714351665 0)
(149.655247 0.0864829503 0)
(149.639774 0.0997235384 0)
(149.623769 0.111308324 0)
(149.607339 0.121380878 0)
(149.590579 0.130075854 0)
(149.573573 0.137519273 0)
(149.556398 0.14382806 0)
(149.539123 0.149109904 0)
(149.521809 0.153463597 0)
(149.50451 0.15697951 0)
(149.487274 0.159740105 0)
(149.47014 0.161820488 0)
(149.453144 0.163288993 0)
(149.436315 0.16420776 0)
(149.419677 0.16463327 0)
(149.403253 0.16461685 0)
(149.38706 0.164205114 0)
(149.371113 0.163440361 0)
(149.355425 0.162360932 0)
(149.340007 0.161001527 0)
(149.324867 0.15939349 0)
(149.310013 0.157565062 0)
(149.295452 0.155541619 0)
(149.281187 0.153345887 0)
(149.267222 0.150998145 0)
(149.25356 0.148516431 0)
(149.240202 0.145916729 0)
(149.227148 0.143213144 0)
(149.214399 0.14041807 0)
(149.201953 0.13754232 0)
(149.189808 0.134595241 0)
(149.177961 0.13158481 0)
(149.166411 0.128517638 0)
(149.155155 0.125399226 0)
(149.144185 0.122232959 0)
(149.133514 0.119024484 0)
(149.123076 0.115762871 0)
(149.113084 0.112500531 0)
(149.102806 0.109022284 0)
(149.094899 0.106205937 0)
(149.078027 0.100508948 0)
(149.742984 -0.0652606685 0)
(149.757875 -0.221298797 0)
(149.797603 -0.392783143 0)
(149.862199 -0.55692837 0)
(149.948423 -0.680418557 0)
(150.04849 -0.735089245 0)
(150.152549 -0.708058397 0)
(150.250382 -0.60251346 0)
(150.332623 -0.433990861 0)
(150.391992 -0.226036788 0)
(150.424512 -0.00562268729 0)
(150.434824 0.202361373 0)
(150.421534 0.378190261 0)
(150.388061 0.508958206 0)
(150.340194 0.588472465 0)
(150.28439 0.616165845 0)
(150.227017 0.595560052 0)
(150.174001 0.532823925 0)
(150.130529 0.436216863 0)
(150.100712 0.31686021 0)
(150.087122 0.190095782 0)
(150.089785 0.075873712 0)
(150.106082 -0.00292977022 0)
(150.131555 -0.0259815954 0)
(150.157453 0.0205371295 0)
(150.176302 0.140205357 0)
(150.178697 0.324068193 0)
(150.156392 0.553153361 0)
(150.104042 0.80293102 0)
(150.019788 1.04814409 0)
(149.904922 1.26695988 0)
(149.763286 1.44354694 0)
(149.600497 1.56887911 0)
(149.423105 1.64020166 0)
(149.237858 1.65987188 0)
(149.051127 1.63425206 0)
(148.868444 1.57306773 0)
(148.694065 1.48923874 0)
(148.530536 1.39878426 0)
(148.378296 1.32016807 0)
(148.235427 1.27255811 0)
(148.097642 1.27291728 0)
(147.958635 1.33243897 0)
(147.810887 1.45335984 0)
(147.646854 1.62736025 0)
(147.46035 1.83642854 0)
(147.247774 2.05630742 0)
(147.008812 2.26174147 0)
(146.746395 2.43204278 0)
(146.465913 2.55528506 0)
(146.173944 2.62986008 0)
(145.876871 2.6630575 0)
(145.579798 2.66739106 0)
(145.286016 2.65613867 0)
(144.997064 2.63967446 0)
(144.71324 2.62363945 0)
(144.43426 2.60912237 0)
(144.159835 2.59423499 0)
(143.889985 2.5760999 0)
(143.625092 2.55239543 0)
(143.36577 2.52204891 0)
(143.112682 2.48514951 0)
(142.866397 2.44243985 0)
(142.627327 2.39477483 0)
(142.395737 2.34278466 0)
(142.171783 2.28678504 0)
(141.955565 2.22684856 0)
(141.747158 2.16292094 0)
(141.54663 2.09490444 0)
(141.354047 2.02268735 0)
(141.169488 1.94613702 0)
(140.993047 1.86508313 0)
(140.82485 1.77930846 0)
(140.665061 1.68855162 0)
(140.513897 1.59251719 0)
(140.371628 1.49088779 0)
(140.238592 1.3833346 0)
(140.115188 1.26952594 0)
(140.00188 1.1491347 0)
(139.899199 1.02184672 0)
(139.807739 0.887370665 0)
(139.728161 0.745449837 0)
(139.661196 0.595875622 0)
(139.607649 0.438499337 0)
(139.568407 0.27324625 0)
(139.544458 0.100109389 0)
(139.538529 -0.0807627312 0)
(139.552239 -0.269031936 0)
(139.585017 -0.464250077 0)
(139.638096 -0.66588575 0)
(139.71274 -0.873243246 0)
(139.810179 -1.08539378 0)
(139.931559 -1.30115645 0)
(140.077896 -1.51908724 0)
(140.250018 -1.73746406 0)
(140.448513 -1.9542855 0)
(140.673653 -2.16729148 0)
(140.925335 -2.37400279 0)
(141.203023 -2.57177741 0)
(141.505701 -2.75788397 0)
(141.83184 -2.92959026 0)
(142.179394 -3.08426267 0)
(142.545814 -3.2194711 0)
(142.928091 -3.33309295 0)
(143.322827 -3.42340835 0)
(143.726325 -3.48917909 0)
(144.134704 -3.52970452 0)
(144.544016 -3.54485024 0)
(144.950377 -3.53504697 0)
(145.35008 -3.50126091 0)
(145.739701 -3.44493873 0)
(146.116189 -3.36793284 0)
(146.476925 -3.27241334 0)
(146.81976 -3.16077356 0)
(147.143032 -3.03553592 0)
(147.445558 -2.89926331 0)
(147.726606 -2.75448016 0)
(147.985864 -2.60360617 0)
(148.223383 -2.44890375 0)
(148.439533 -2.29243942 0)
(148.634942 -2.13605866 0)
(148.810445 -1.98137247 0)
(148.967033 -1.82975422 0)
(149.105806 -1.68234452 0)
(149.227934 -1.5400627 0)
(149.334622 -1.40362272 0)
(149.42708 -1.27355193 0)
(149.506503 -1.15021165 0)
(149.574052 -1.03381794 0)
(149.630837 -0.92446227 0)
(149.677915 -0.8221314 0)