/*--------------------------------*- C++ -*----------------------------------*\
| =========                 |                                                 |
| \\      /  F ield         | OpenFOAM: The Open Source CFD Toolbox           |
|  \\    /   O peration     | Version:  v2012                                 |
|   \\  /    A nd           | Website:  www.openfoam.com                      |
|    \\/     M anipulation  |                                                 |
\*---------------------------------------------------------------------------*/
FoamFile
{
    version     2.0;
    format      ascii;
    class       volVectorField;
    location    "2.84";
    object      HbyA;
}
// * * * * * * * * * * * * * * * * * * * * * * * * * * * * * * * * * * * * * //

dimensions      [0 1 -1 0 0 0 0];


internalField   nonuniform List<vector> 
28416
(
(0.100001323 -1.03421028e-05 0)
(0.100013383 -3.47452046e-05 0)
(0.10003881 -6.14755511e-05 0)
(0.100077672 -8.6048041e-05 0)
(0.100127016 -0.000102217187 0)
(0.100182148 -0.000105045564 0)
(0.100237653 -9.2744401e-05 0)
(0.10028802 -6.66190836e-05 0)
(0.100327924 -2.99430257e-05 0)
(0.1003534 1.36467404e-05 0)
(0.100366564 6.13897886e-05 0)
(0.100369968 0.00010590266 0)
(0.100362745 0.000142390601 0)
(0.100346236 0.000168408211 0)
(0.100323117 0.000182678825 0)
(0.100296171 0.000185173769 0)
(0.100268111 0.000176924929 0)
(0.100241408 0.00015964391 0)
(0.100218151 0.000135529324 0)
(0.100199924 0.000107361883 0)
(0.100187608 7.87186632e-05 0)
(0.100181118 5.39633424e-05 0)
(0.100179 3.77038354e-05 0)
(0.100178518 3.39942552e-05 0)
(0.100176029 4.5147907e-05 0)
(0.10016717 7.11180413e-05 0)
(0.10014764 0.000109600879 0)
(0.100114203 0.000156495273 0)
(0.100065133 0.000206711934 0)
(0.100000246 0.00025512304 0)
(0.0999207231 0.000297325166 0)
(0.0998287562 0.000330085284 0)
(0.0997271096 0.000351511969 0)
(0.0996187371 0.000361039675 0)
(0.0995065156 0.0003593115 0)
(0.0993930758 0.00034802705 0)
(0.0992806764 0.000329790564 0)
(0.0991710611 0.000307955152 0)
(0.0990652612 0.000286421025 0)
(0.0989633575 0.000269331106 0)
(0.0988642764 0.000260631147 0)
(0.0987657561 0.000263515142 0)
(0.0986646021 0.000279838327 0)
(0.0985572425 0.000309633593 0)
(0.0984404451 0.000350901828 0)
(0.0983119808 0.0003998284 0)
(0.0981710475 0.000451467503 0)
(0.0980183594 0.000500759512 0)
(0.0978559 0.000543595208 0)
(0.0976864272 0.000577597807 0)
(0.0975128783 0.000602385261 0)
(0.0973378414 0.000619264879 0)
(0.0971632191 0.00063051762 0)
(0.0969901426 0.000638559914 0)
(0.0968191048 0.000645274196 0)
(0.0966502205 0.000651686853 0)
(0.096483497 0.000658008412 0)
(0.0963190265 0.000663914789 0)
(0.0961570629 0.000668892968 0)
(0.0959980004 0.000672504884 0)
(0.0958422999 0.000674504232 0)
(0.0956904144 0.000674822626 0)
(0.0955427401 0.000673487794 0)
(0.0953996025 0.000670538588 0)
(0.0952612659 0.000665974698 0)
(0.0951279512 0.000659746591 0)
(0.0949998525 0.000651770571 0)
(0.0948771464 0.00064194981 0)
(0.0947599963 0.000630189247 0)
(0.0946485541 0.000616401603 0)
(0.0945429632 0.000600507597 0)
(0.0944433621 0.000582434605 0)
(0.0943498903 0.000562116506 0)
(0.0942626939 0.000539495451 0)
(0.0941819323 0.000514524938 0)
(0.0941077863 0.000487173224 0)
(0.0940404693 0.00045742573 0)
(0.0939802523 0.000425284454 0)
(0.0939274871 0.000390753913 0)
(0.0938825621 0.000353816076 0)
(0.0938458315 0.000314428565 0)
(0.0938176286 0.000272515536 0)
(0.0937981925 0.000227912494 0)
(0.093787572 0.000180461295 0)
(0.093785653 0.000130128082 0)
(0.0937922 7.71173133e-05 0)
(0.0938055708 2.21156241e-05 0)
(0.0938267982 -3.17981771e-05 0)
(0.0938603495 -8.50913648e-05 0)
(0.0939074261 -0.000139312147 0)
(0.0939668368 -0.000194677127 0)
(0.094038267 -0.000250877381 0)
(0.0941219457 -0.000307647694 0)
(0.0942178635 -0.000364668269 0)
(0.094325844 -0.000421511296 0)
(0.0944456782 -0.000477695483 0)
(0.0945770737 -0.000532712186 0)
(0.0947196091 -0.000586025776 0)
(0.094872733 -0.00063707885 0)
(0.0950357673 -0.000685304233 0)
(0.0952079086 -0.000730140421 0)
(0.0953882345 -0.000771049954 0)
(0.0955757146 -0.000807539291 0)
(0.0957692236 -0.000839177665 0)
(0.095967557 -0.000865612835 0)
(0.0961694497 -0.000886582629 0)
(0.0963735978 -0.000901922001 0)
(0.0965786821 -0.000911565871 0)
(0.0967833937 -0.000915548287 0)
(0.0969864584 -0.000913998469 0)
(0.0971866613 -0.000907134118 0)
(0.0973828678 -0.000895252346 0)
(0.0975740413 -0.000878718581 0)
(0.0977592575 -0.00085795388 0)
(0.0979377136 -0.000833421263 0)
(0.0981087338 -0.000805611692 0)
(0.0982717713 -0.000775030327 0)
(0.0984264062 -0.000742183671 0)
(0.0985723407 -0.000707568024 0)
(0.0987093915 -0.000671659554 0)
(0.0988374812 -0.000634906151 0)
(0.0989566275 -0.000597721059 0)
(0.099066932 -0.000560478241 0)
(0.0991685693 -0.000523509433 0)
(0.0992617755 -0.000487102815 0)
(0.0993468373 -0.000451503186 0)
(0.0994240818 -0.000416913163 0)
(0.0994938654 -0.000383494678 0)
(0.0995565668 -0.000351370604 0)
(0.0996125808 -0.000320627385 0)
(0.0996623134 -0.000291319544 0)
(0.0997061764 -0.000263474933 0)
(0.09974458 -0.000237098295 0)
(0.099777929 -0.000212173173 0)
(0.0998066231 -0.000188665275 0)
(0.0998310576 -0.000166528828 0)
(0.0998516194 -0.000145712918 0)
(0.0998686826 -0.00012616476 0)
(0.099882607 -0.00010783257 0)
(0.0998937397 -9.06718128e-05 0)
(0.0999024106 -7.46529051e-05 0)
(0.0999089222 -5.97674904e-05 0)
(0.0999135354 -4.60304628e-05 0)
(0.0999164543 -3.34723149e-05 0)
(0.0999178041 -2.21142135e-05 0)
(0.0999176025 -1.19221661e-05 0)
(0.0999157861 -2.73539736e-06 0)
(0.0999127769 5.72290723e-06 0)
(0.0999090341 1.33090205e-05 0)
(0.0999044558 1.99995436e-05 0)
(0.0998989927 2.58996372e-05 0)
(0.099892755 3.11010388e-05 0)
(0.0998858479 3.56768307e-05 0)
(0.0998783579 3.96927097e-05 0)
(0.0998703701 4.32061862e-05 0)
(0.099861965 4.62674425e-05 0)
(0.0998532153 4.89206521e-05 0)
(0.0998441875 5.12045502e-05 0)
(0.0998349413 5.31528087e-05 0)
(0.0998255302 5.47946235e-05 0)
(0.0998160012 5.61555121e-05 0)
(0.0998063951 5.7258189e-05 0)
(0.0997967471 5.81233645e-05 0)
(0.0997870877 5.87703458e-05 0)
(0.0997774428 5.92173952e-05 0)
(0.099767835 5.94818849e-05 0)
(0.0997582841 5.9580324e-05 0)
(0.0997488073 5.95283223e-05 0)
(0.09973942 5.93405303e-05 0)
(0.0997301357 5.90305737e-05 0)
(0.0997209666 5.86109893e-05 0)
(0.0997119235 5.8093172e-05 0)
(0.0997030161 5.74873429e-05 0)
(0.0996942527 5.68025509e-05 0)
(0.0996856407 5.604672e-05 0)
(0.0996771863 5.52267437e-05 0)
(0.0996688947 5.43486205e-05 0)
(0.0996607702 5.34176144e-05 0)
(0.0996528164 5.24383775e-05 0)
(0.0996450364 5.14150151e-05 0)
(0.099637433 5.03511923e-05 0)
(0.099630008 4.92502091e-05 0)
(0.0996227647 4.81150517e-05 0)
(0.0996157024 4.69480464e-05 0)
(0.0996088354 4.57518805e-05 0)
(0.0996021299 4.45235102e-05 0)
(0.0995957284 4.32789416e-05 0)
(0.0995891861 4.19372438e-05 0)
(0.0995841825 4.08128866e-05 0)
(0.0995754829 3.84624602e-05 0)
(0.100000799 -2.0854344e-05 0)
(0.100010161 -6.949345e-05 0)
(0.100033114 -0.000121907559 0)
(0.10007175 -0.000170344869 0)
(0.100123813 -0.000204016097 0)
(0.100184218 -0.000214272661 0)
(0.10024676 -0.000197747366 0)
(0.100305049 -0.000156356538 0)
(0.100353366 -9.56938454e-05 0)
(0.100388475 -2.29699213e-05 0)
(0.100407238 5.41326637e-05 0)
(0.100408538 0.000126017988 0)
(0.100395578 0.000185868611 0)
(0.100371768 0.000229382119 0)
(0.100340396 0.000254486518 0)
(0.100304997 0.000261190257 0)
(0.100269005 0.000251044086 0)
(0.100235533 0.0002265536 0)
(0.10020728 0.000190929794 0)
(0.10018639 0.000148312746 0)
(0.100174183 0.000104200912 0)
(0.100170719 6.55195306e-05 0)
(0.10017445 3.98744348e-05 0)
(0.100182115 3.41753441e-05 0)
(0.100189062 5.26209863e-05 0)
(0.100189917 9.53840441e-05 0)
(0.10017937 0.000158700531 0)
(0.100153079 0.000235791437 0)
(0.100108415 0.0003182962 0)
(0.100044752 0.000397882069 0)
(0.0999633305 0.000467551601 0)
(0.0998668363 0.00052237696 0)
(0.0997588406 0.000559679881 0)
(0.0996432672 0.000578832556 0)
(0.0995239757 0.000580901155 0)
(0.0994044768 0.000568320962 0)
(0.0992877325 0.000544699163 0)
(0.099175968 0.000514722399 0)
(0.0990704524 0.000484040793 0)
(0.0989712625 0.000458951336 0)
(0.0988771049 0.000445746094 0)
(0.0987853033 0.000449729059 0)
(0.0986920392 0.000474091592 0)
(0.0985928785 0.00051898288 0)
(0.0984835275 0.000581141467 0)
(0.0983606681 0.000654331128 0)
(0.0982226482 0.000730570706 0)
(0.0980698136 0.000801856378 0)
(0.0979043658 0.000861875325 0)
(0.0977297869 0.000907193678 0)
(0.0975500143 0.000937580616 0)
(0.0973686223 0.000955436106 0)
(0.0971882457 0.000964599393 0)
(0.0970103724 0.000969002041 0)
(0.0968354949 0.000971621389 0)
(0.0966634875 0.000974006892 0)
(0.0964940308 0.000976390288 0)
(0.0963269314 0.000978174385 0)
(0.0961622657 0.000978509447 0)
(0.096000361 0.000976720359 0)
(0.0958416856 0.000972483521 0)
(0.095686726 0.000965787342 0)
(0.0955359041 0.000956784327 0)
(0.0953895489 0.000945643263 0)
(0.0952479093 0.00093246304 0)
(0.0951111826 0.000917255192 0)
(0.0949795399 0.000899968625 0)
(0.094853141 0.000880523964 0)
(0.0947321396 0.000858837062 0)
(0.0946166842 0.000834827221 0)
(0.0945069195 0.000808415742 0)
(0.09440299 0.000779522226 0)
(0.0943050458 0.000748063182 0)
(0.0942132488 0.000713953824 0)
(0.09412778 0.000677111639 0)
(0.0940488459 0.00063745969 0)
(0.0939766854 0.000594927482 0)
(0.0939115767 0.000549446814 0)
(0.093853833 0.000500931733 0)
(0.0938037731 0.000449250891 0)
(0.0937616721 0.000394238841 0)
(0.0937277135 0.000335723182 0)
(0.0937020369 0.000273524428 0)
(0.093684838 0.00020759677 0)
(0.0936764152 0.000138107738 0)
(0.0936773664 6.54918756e-05 0)
(0.0936894518 -9.79058732e-06 0)
(0.0937125491 -8.61728441e-05 0)
(0.0937458837 -0.000163197787 0)
(0.0937909464 -0.000241645377 0)
(0.0938486037 -0.000321553597 0)
(0.09391899 -0.000402481737 0)
(0.0940022617 -0.000484008974 0)
(0.0940985468 -0.000565666834 0)
(0.0942078324 -0.000646857927 0)
(0.094329992 -0.000726895567 0)
(0.0944647837 -0.000805035875 0)
(0.0946118243 -0.000880488661 0)
(0.0947705774 -0.000952434803 0)
(0.0949403518 -0.00102004993 0)
(0.0951203014 -0.00108252863 0)
(0.0953094294 -0.00113910893 0)
(0.0955065991 -0.00118909694 0)
(0.0957105493 -0.0012318904 0)
(0.0959199139 -0.00126699943 0)
(0.096133247 -0.00129406351 0)
(0.0963490515 -0.00131286365 0)
(0.09656581 -0.00132332901 0)
(0.0967820181 -0.00132553762 0)
(0.0969962162 -0.00131971132 0)
(0.0972070194 -0.00130620527 0)
(0.0974131441 -0.00128549298 0)
(0.0976134291 -0.00125814785 0)
(0.0978068524 -0.00122482233 0)
(0.0979925417 -0.00118622604 0)
(0.0981697797 -0.00114310386 0)
(0.0983380043 -0.00109621493 0)
(0.0984968046 -0.00104631349 0)
(0.0986459129 -0.000994132009 0)
(0.0987851946 -0.000940367041 0)
(0.0989146348 -0.000885667936 0)
(0.099034325 -0.000830628461 0)
(0.0991444483 -0.000775781151 0)
(0.0992452649 -0.000721594179 0)
(0.0993370979 -0.000668470388 0)
(0.0994203202 -0.000616748174 0)
(0.0994953425 -0.000566703777 0)
(0.0995626029 -0.000518554609 0)
(0.0996225575 -0.000472463392 0)
(0.0996756713 -0.000428543212 0)
(0.0997224115 -0.000386863195 0)
(0.0997632421 -0.000347454419 0)
(0.0997986205 -0.000310315958 0)
(0.0998289938 -0.000275420585 0)
(0.0998547933 -0.000242720017 0)
(0.0998764317 -0.000212150442 0)
(0.0998943032 -0.000183639717 0)
(0.0999087824 -0.000157114303 0)
(0.0999202199 -0.000132502567 0)
(0.0999289379 -0.000109736047 0)
(0.0999352258 -8.87511866e-05 0)
(0.0999393366 -6.94879948e-05 0)
(0.099941488 -5.18817562e-05 0)
(0.0999418775 -3.58575073e-05 0)
(0.0999407024 -2.13305814e-05 0)
(0.0999381843 -8.19564328e-06 0)
(0.0999345359 3.71332657e-06 0)
(0.0999298309 1.46056039e-05 0)
(0.0999241873 2.43846619e-05 0)
(0.0999177913 3.3039327e-05 0)
(0.099910727 4.06756006e-05 0)
(0.0999030682 4.7391179e-05 0)
(0.0998948906 5.32699213e-05 0)
(0.0998862636 5.8392106e-05 0)
(0.099877255 6.28311402e-05 0)
(0.0998679305 6.66528505e-05 0)
(0.0998583506 6.99166715e-05 0)
(0.0998485707 7.26762732e-05 0)
(0.0998386409 7.49798877e-05 0)
(0.0998286065 7.68707503e-05 0)
(0.0998185075 7.83876468e-05 0)
(0.0998083795 7.95654837e-05 0)
(0.0997982532 8.04358274e-05 0)
(0.0997881559 8.10273746e-05 0)
(0.0997781108 8.13663349e-05 0)
(0.0997681384 8.14767316e-05 0)
(0.0997582562 8.13806336e-05 0)
(0.0997484795 8.10983322e-05 0)
(0.0997388215 8.0648473e-05 0)
(0.0997292936 8.00481542e-05 0)
(0.0997199056 7.93130012e-05 0)
(0.099710666 7.84572285e-05 0)
(0.0997015822 7.74936984e-05 0)
(0.0996926603 7.64339846e-05 0)
(0.0996839058 7.52884488e-05 0)
(0.0996753229 7.40663315e-05 0)
(0.0996669153 7.27758524e-05 0)
(0.099658686 7.14243133e-05 0)
(0.0996506372 7.00181429e-05 0)
(0.099642771 6.85628796e-05 0)
(0.0996350888 6.70632199e-05 0)
(0.0996275918 6.55230448e-05 0)
(0.0996202819 6.3945475e-05 0)
(0.0996131569 6.2332324e-05 0)
(0.0996062298 6.06857721e-05 0)
(0.0995994609 5.89993147e-05 0)
(0.0995929945 5.7294845e-05 0)
(0.0995863401 5.54587722e-05 0)
(0.0995812536 5.3932916e-05 0)
(0.0995720729 5.08124604e-05 0)
(0.100001099 -2.47644485e-05 0)
(0.100011868 -8.29056698e-05 0)
(0.100036016 -0.0001457114 0)
(0.100074948 -0.000204500987 0)
(0.100126433 -0.000246866634 0)
(0.100185714 -0.000262562631 0)
(0.100246966 -0.000247283984 0)
(0.100304206 -0.000202821961 0)
(0.10035194 -0.000135425035 0)
(0.10038592 -5.41336371e-05 0)
(0.100404598 3.01598467e-05 0)
(0.100408505 0.000109155914 0)
(0.100398736 0.00017582275 0)
(0.100377613 0.000224987749 0)
(0.100348553 0.000254169635 0)
(0.100315145 0.000263229 0)
(0.1002808 0.000253711527 0)
(0.100248613 0.000228233117 0)
(0.100221248 0.000190209518 0)
(0.100200801 0.000144120386 0)
(0.100188568 9.60146132e-05 0)
(0.100184708 5.36134556e-05 0)
(0.100187922 2.54805542e-05 0)
(0.10019515 1.92543013e-05 0)
(0.100201674 3.98234885e-05 0)
(0.100202049 8.81419165e-05 0)
(0.100191202 0.000160552698 0)
(0.100165148 0.00024959504 0)
(0.100121442 0.000345753772 0)
(0.100059413 0.000439352874 0)
(0.0999800928 0.000522103569 0)
(0.099885874 0.00058803538 0)
(0.0997800363 0.000633787053 0)
(0.0996662678 0.000658423911 0)
(0.0995482706 0.000663029749 0)
(0.0994294705 0.000650306619 0)
(0.0993128026 0.000624320816 0)
(0.0992005181 0.00059039119 0)
(0.0990939675 0.00055497547 0)
(0.098993356 0.000525339581 0)
(0.0988975356 0.000508842987 0)
(0.0988039595 0.000511825785 0)
(0.098708921 0.000538290109 0)
(0.0986081034 0.000588753381 0)
(0.0984973426 0.000659713027 0)
(0.0983734213 0.000744039831 0)
(0.0982346964 0.000832336753 0)
(0.0980813966 0.000914958717 0)
(0.0979155076 0.000984119893 0)
(0.0977402711 0.0010354424 0)
(0.097559441 0.001068477 0)
(0.0973765168 0.00108609366 0)
(0.097194173 0.00109304525 0)
(0.09701402 0.00109427665 0)
(0.0968367055 0.00109357173 0)
(0.0966622442 0.00109291295 0)
(0.0964904137 0.00109259314 0)
(0.0963210665 0.00109182992 0)
(0.0961542838 0.00108950984 0)
(0.0959903752 0.00108474925 0)
(0.0958297854 0.00107713211 0)
(0.0956729816 0.00106666252 0)
(0.0955203732 0.0010535707 0)
(0.0953722815 0.00103811586 0)
(0.095228948 0.00102046915 0)
(0.0950905607 0.00100068801 0)
(0.0949572793 0.000978747607 0)
(0.0948292503 0.000954585736 0)
(0.0947066142 0.000928133671 0)
(0.0945895069 0.000899326396 0)
(0.0944780622 0.000868099514 0)
(0.094372415 0.000834382844 0)
(0.0942727078 0.000798096917 0)
(0.0941790964 0.000759153734 0)
(0.0940917558 0.000717460017 0)
(0.0940108858 0.000672920516 0)
(0.0939367146 0.000625439523 0)
(0.0938695008 0.000574919655 0)
(0.0938095297 0.0005212576 0)
(0.093757104 0.000464344606 0)
(0.0937125365 0.000404084341 0)
(0.0936761491 0.000340433078 0)
(0.0936483311 0.000273454779 0)
(0.0936295356 0.000203320311 0)
(0.093620207 0.000130269932 0)
(0.0936204318 5.45166161e-05 0)
(0.0936297723 -2.37364068e-05 0)
(0.0936491566 -0.000105029578 0)
(0.0936803127 -0.000188549155 0)
(0.093723885 -0.00027383426 0)
(0.0937801367 -0.000360776536 0)
(0.0938493444 -0.000449070454 0)
(0.0939318209 -0.00053824442 0)
(0.0940277906 -0.000627737673 0)
(0.0941373406 -0.000716885695 0)
(0.0942604337 -0.000804924652 0)
(0.0943968992 -0.000891013845 0)
(0.0945464083 -0.000974252751 0)
(0.094708459 -0.00105369925 0)
(0.0948823699 -0.00112839423 0)
(0.0950672763 -0.0011973906 0)
(0.0952621335 -0.00125978473 0)
(0.0954657268 -0.00131474907 0)
(0.095676689 -0.00136156352 0)
(0.0958935249 -0.00139964323 0)
(0.0961146419 -0.00142856079 0)
(0.0963383855 -0.00144806155 0)
(0.0965630774 -0.00145807136 0)
(0.0967870558 -0.00145869655 0)
(0.0970087131 -0.00145021656 0)
(0.0972265319 -0.00143306988 0)
(0.0974391151 -0.00140783464 0)
(0.097645211 -0.00137520485 0)
(0.0978437312 -0.00133596416 0)
(0.0980337614 -0.00129095835 0)
(0.0982145662 -0.00124106822 0)
(0.0983855875 -0.00118718399 0)
(0.0985464375 -0.00113018235 0)
(0.098696888 -0.00107090668 0)
(0.0988368561 -0.00101015099 0)
(0.0989663882 -0.000948647501 0)
(0.0990856426 -0.000887058051 0)
(0.0991948722 -0.000825968721 0)
(0.0992944075 -0.000765887554 0)
(0.0993846402 -0.000707244832 0)
(0.0994660087 -0.000650395477 0)
(0.0995389842 -0.000595623077 0)
(0.0996040587 -0.000543145229 0)
(0.0996617343 -0.00049311966 0)
(0.0997125166 -0.000445650702 0)
(0.0997569082 -0.000400795897 0)
(0.0997954027 -0.000358572754 0)
(0.0998284785 -0.000318965795 0)
(0.0998565952 -0.00028193308 0)
(0.0998801953 -0.000247411577 0)
(0.0998997014 -0.000215322116 0)
(0.0999155117 -0.000185572754 0)
(0.0999279995 -0.000158061283 0)
(0.0999375184 -0.000132678448 0)
(0.0999444058 -0.000109309001 0)
(0.0999489817 -8.7835813e-05 0)
(0.0999515492 -6.8151573e-05 0)
(0.0999523867 -5.01631298e-05 0)
(0.0999517226 -3.37819587e-05 0)
(0.0999497189 -1.89182284e-05 0)
(0.099946487 -5.50110785e-06 0)
(0.0999420798 6.53384953e-06 0)
(0.0999366118 1.73093943e-05 0)
(0.0999302864 2.69685032e-05 0)
(0.099923235 3.55774695e-05 0)
(0.0999155338 4.32065998e-05 0)
(0.0999072677 4.9932146e-05 0)
(0.0998985215 5.58277543e-05 0)
(0.0998893698 6.09661753e-05 0)
(0.0998798812 6.54171757e-05 0)
(0.0998701197 6.92451566e-05 0)
(0.0998601444 7.2508895e-05 0)
(0.0998500088 7.52617827e-05 0)
(0.0998397605 7.75520909e-05 0)
(0.0998294421 7.94233644e-05 0)
(0.099819091 8.09149193e-05 0)
(0.0998087394 8.20623706e-05 0)
(0.0997984155 8.28981287e-05 0)
(0.0997881432 8.34518274e-05 0)
(0.0997779434 8.37506624e-05 0)
(0.0997678339 8.38196426e-05 0)
(0.0997578301 8.36817709e-05 0)
(0.0997479454 8.33581729e-05 0)
(0.0997381913 8.28681935e-05 0)
(0.0997285782 8.22294753e-05 0)
(0.0997191146 8.14580279e-05 0)
(0.0997098084 8.05682979e-05 0)
(0.099700666 7.95732436e-05 0)
(0.0996916929 7.84844199e-05 0)
(0.0996828939 7.7312076e-05 0)
(0.0996742727 7.60652652e-05 0)
(0.0996658321 7.47519594e-05 0)
(0.0996575746 7.3379159e-05 0)
(0.0996495016 7.19529808e-05 0)
(0.0996416143 7.04787137e-05 0)
(0.0996339135 6.896087e-05 0)
(0.0996263993 6.74031826e-05 0)
(0.0996190726 6.5808681e-05 0)
(0.0996119303 6.41791225e-05 0)
(0.0996049839 6.25169783e-05 0)
(0.0995981932 6.08158897e-05 0)
(0.0995916997 5.9100546e-05 0)
(0.0995850315 5.72571231e-05 0)
(0.0995799218 5.57404523e-05 0)
(0.0995709431 5.26548712e-05 0)
(0.10000094 -3.14378138e-05 0)
(0.100011062 -0.000106033424 0)
(0.100034938 -0.000187413344 0)
(0.100074678 -0.000264271206 0)
(0.100128404 -0.000320386955 0)
(0.100191268 -0.000342309493 0)
(0.100256959 -0.000324260948 0)
(0.100318807 -0.000268392767 0)
(0.100370655 -0.000182711881 0)
(0.100407798 -7.87214419e-05 0)
(0.100428004 3.10476019e-05 0)
(0.100431444 0.000134245936 0)
(0.100419771 0.000220765057 0)
(0.100395845 0.000284442848 0)
(0.100363388 0.000322408275 0)
(0.100326371 0.000334537056 0)
(0.10028866 0.000322778008 0)
(0.100253806 0.000290392554 0)
(0.100224884 0.000241635208 0)
(0.100204306 0.000182123906 0)
(0.100193516 0.000119529558 0)
(0.100192549 6.37412258e-05 0)
(0.100199622 2.59223243e-05 0)
(0.100211237 1.64203055e-05 0)
(0.100222873 4.16317758e-05 0)
(0.100229081 0.000102591692 0)
(0.100223945 0.000194396549 0)
(0.100202546 0.000307457249 0)
(0.100161865 0.000429627571 0)
(0.100101017 0.000548579402 0)
(0.100021116 0.000653796895 0)
(0.0999248594 0.000737764955 0)
(0.0998159634 0.000796304582 0)
(0.0996986218 0.000828287975 0)
(0.0995770539 0.00083507587 0)
(0.0994551714 0.000819991892 0)
(0.0993363219 0.000788015095 0)
(0.099223046 0.000745680825 0)
(0.0991168131 0.000700997076 0)
(0.0990177657 0.000663080807 0)
(0.0989245492 0.000641268311 0)
(0.0988343116 0.000643672863 0)
(0.0987429557 0.000675462813 0)
(0.0986456852 0.000737370535 0)
(0.098537802 0.000825004062 0)
(0.0984155943 0.000929362899 0)
(0.0982770839 0.00103858636 0)
(0.0981224083 0.00114052264 0)
(0.0979537113 0.00122538306 0)
(0.0977745758 0.00128767709 0)
(0.0975891766 0.00132685468 0)
(0.097401413 0.00134653768 0)
(0.0972142678 0.00135272082 0)
(0.0970295374 0.00135165316 0)
(0.0968479387 0.00134813759 0)
(0.0966694713 0.00134471837 0)
(0.0964938536 0.0013418105 0)
(0.0963208709 0.00133846419 0)
(0.0961505509 0.00133329868 0)
(0.0959831706 0.00132521229 0)
(0.095819158 0.00131368914 0)
(0.0956589714 0.00129874584 0)
(0.0955030111 0.00128069045 0)
(0.0953515842 0.00125987342 0)
(0.0952049135 0.00123653712 0)
(0.0950631644 0.00121077992 0)
(0.0949264725 0.00118259293 0)
(0.0947949603 0.00115191509 0)
(0.0946687451 0.00111867181 0)
(0.0945479423 0.00108278817 0)
(0.0944326676 0.00104418552 0)
(0.0943230423 0.00100277364 0)
(0.0942191985 0.000958446463 0)
(0.0941212862 0.000911083116 0)
(0.0940294789 0.000860552126 0)
(0.0939439785 0.000806715979 0)
(0.0938650185 0.000749434483 0)
(0.0937928646 0.000688566816 0)
(0.0937278132 0.000623973337 0)
(0.0936701881 0.000555520406 0)
(0.0936203357 0.000483090041 0)
(0.0935786211 0.000406591203 0)
(0.0935454267 0.000325970749 0)
(0.0935211458 0.000241176685 0)
(0.0935061194 0.000152176176 0)
(0.0935009138 5.89962443e-05 0)
(0.0935064758 -3.79862613e-05 0)
(0.0935234209 -0.000137894094 0)
(0.0935521472 -0.000240558034 0)
(0.0935933308 -0.00034584658 0)
(0.0936476375 -0.000453428601 0)
(0.0937155909 -0.000562795069 0)
(0.0937976178 -0.00067332643 0)
(0.0938940551 -0.000784299896 0)
(0.0940051197 -0.000894869285 0)
(0.0941308877 -0.0010040679 0)
(0.0942712747 -0.00111082822 0)
(0.0944260123 -0.00121400405 0)
(0.0945946276 -0.00131239681 0)
(0.0947764297 -0.00140478837 0)
(0.094970504 -0.00148997838 0)
(0.0951757138 -0.0015668238 0)
(0.0953907115 -0.00163427935 0)
(0.0956139595 -0.00169143671 0)
(0.0958437605 -0.00173755993 0)
(0.0960782952 -0.00177211476 0)
(0.0963156666 -0.00179478957 0)
(0.0965539489 -0.00180550654 0)
(0.0967912365 -0.00180442231 0)
(0.0970256928 -0.00179191817 0)
(0.0972555936 -0.00176858092 0)
(0.097479365 -0.00173517595 0)
(0.0976956127 -0.00169261476 0)
(0.0979031426 -0.00164191919 0)
(0.0981009724 -0.00158418456 0)
(0.0982883347 -0.00152054383 0)
(0.0984646723 -0.00145213434 0)
(0.0986296279 -0.00138006845 0)
(0.0987830278 -0.00130540884 0)
(0.0989248637 -0.00122914881 0)
(0.0990552709 -0.00115219767 0)
(0.0991745069 -0.00107537098 0)
(0.0992829293 -0.000999385134 0)
(0.0993809751 -0.000924855734 0)
(0.0994691414 -0.000852299172 0)
(0.0995479675 -0.000782136715 0)
(0.0996180201 -0.000714700361 0)
(0.0996798805 -0.000650239923 0)
(0.0997341333 -0.000588930778 0)
(0.0997813579 -0.000530882154 0)
(0.0998221203 -0.000476146142 0)
(0.099856968 -0.000424726611 0)
(0.0998864263 -0.000376586825 0)
(0.0999109969 -0.000331656169 0)
(0.0999311536 -0.000289837392 0)
(0.0999473424 -0.000251014392 0)
(0.0999599843 -0.000215058458 0)
(0.0999694736 -0.000181832767 0)
(0.0999761762 -0.000151199233 0)
(0.0999804236 -0.00012302974 0)
(0.0999824963 -9.72097278e-05 0)
(0.0999826196 -7.36274436e-05 0)
(0.0999809891 -5.21677674e-05 0)
(0.0999777967 -3.27175126e-05 0)
(0.0999732183 -1.51566485e-05 0)
(0.0999674473 6.66083462e-07 0)
(0.0999607594 1.48396184e-05 0)
(0.0999533213 2.75100952e-05 0)
(0.0999451861 3.88054883e-05 0)
(0.0999364561 4.88190992e-05 0)
(0.0999272263 5.76517983e-05 0)
(0.0999175745 6.54055264e-05 0)
(0.0999075724 7.21741138e-05 0)
(0.0998972848 7.80454569e-05 0)
(0.0998867699 8.31021473e-05 0)
(0.0998760807 8.74205755e-05 0)
(0.0998652652 9.10708418e-05 0)
(0.0998543666 9.41170416e-05 0)
(0.0998434237 9.6617544e-05 0)
(0.0998324713 9.86253199e-05 0)
(0.0998215405 0.000100188344 0)
(0.0998106587 0.000101350039 0)
(0.0997998502 0.000102149728 0)
(0.0997891358 0.000102623066 0)
(0.0997785339 0.000102802437 0)
(0.0997680598 0.000102717302 0)
(0.0997577266 0.000102394502 0)
(0.0997475455 0.000101858505 0)
(0.0997375255 0.000101131618 0)
(0.0997276742 0.000100234157 0)
(0.0997179977 9.91845935e-05 0)
(0.0997085012 9.79996821e-05 0)
(0.0996991886 9.6694569e-05 0)
(0.099690063 9.52828969e-05 0)
(0.0996811268 9.37769031e-05 0)
(0.0996723819 9.21875132e-05 0)
(0.0996638295 9.05244278e-05 0)
(0.0996554704 8.87961999e-05 0)
(0.0996473049 8.70102982e-05 0)
(0.0996393332 8.51731528e-05 0)
(0.099631555 8.32902009e-05 0)
(0.0996239696 8.13658842e-05 0)
(0.0996165771 7.94037828e-05 0)
(0.0996093732 7.74059926e-05 0)
(0.0996023683 7.53756886e-05 0)
(0.0995955188 7.33055781e-05 0)
(0.0995889683 7.12267018e-05 0)
(0.099582214 6.9002005e-05 0)
(0.0995770424 6.71827672e-05 0)
(0.099567686 6.34836512e-05 0)
(0.100000996 -3.74166354e-05 0)
(0.100011462 -0.000126460361 0)
(0.100035897 -0.000223845802 0)
(0.100076286 -0.000316526518 0)
(0.100130603 -0.000385642028 0)
(0.100193967 -0.000415370544 0)
(0.100260207 -0.000398586923 0)
(0.100322874 -0.000337279382 0)
(0.100375988 -0.000240416981 0)
(0.100415096 -0.00012142764 0)
(0.100437668 4.4662935e-06 0)
(0.100442869 0.000122794845 0)
(0.10043232 0.000222677532 0)
(0.100409395 0.000296815143 0)
(0.100377784 0.000341685798 0)
(0.100341412 0.000357025818 0)
(0.100304169 0.00034492097 0)
(0.100269627 0.000308954512 0)
(0.100240897 0.000253886606 0)
(0.100220458 0.000186091436 0)
(0.100209874 0.000114352126 0)
(0.100209491 5.00885106e-05 0)
(0.100218196 6.02911872e-06 0)
(0.100232371 -6.0969574e-06 0)
(0.100246469 2.19171594e-05 0)
(0.100254481 9.13244213e-05 0)
(0.100250734 0.000196973321 0)
(0.100230803 0.000328074604 0)
(0.100191824 0.000470575954 0)
(0.100132823 0.000610077261 0)
(0.10005474 0.000734201944 0)
(0.099960095 0.000834012125 0)
(0.099852466 0.000904448484 0)
(0.0997359634 0.000944027271 0)
(0.0996147752 0.000954183252 0)
(0.0994928176 0.000938641094 0)
(0.0993734682 0.000903047113 0)
(0.0992593314 0.000854859619 0)
(0.0991519912 0.000803268623 0)
(0.099051736 0.000758801872 0)
(0.0989573261 0.000732331136 0)
(0.0988659477 0.000733426599 0)
(0.0987734729 0.000768349758 0)
(0.0986750486 0.00083826643 0)
(0.0985659216 0.000938352036 0)
(0.0984423261 0.0010582862 0)
(0.0983022117 0.00118421888 0)
(0.0981456211 0.00130176965 0)
(0.0979746063 0.00139920626 0)
(0.0977927011 0.0014698272 0)
(0.0976040983 0.00151282405 0)
(0.0974127799 0.00153243925 0)
(0.0972218499 0.00153584631 0)
(0.0970332324 0.00153059943 0)
(0.096847752 0.00152255349 0)
(0.0966654835 0.00151484403 0)
(0.0964861879 0.00150801442 0)
(0.0963096697 0.00150093008 0)
(0.0961359624 0.00149191596 0)
(0.0959653433 0.00147963154 0)
(0.0957982382 0.00146345607 0)
(0.0956351008 0.00144342991 0)
(0.0954763216 0.0014199604 0)
(0.0953221929 0.00139351358 0)
(0.0951729157 0.00136442513 0)
(0.0950286294 0.00133285271 0)
(0.0948894402 0.00129881915 0)
(0.0947554407 0.00126227997 0)
(0.094626719 0.00122317112 0)
(0.0945033633 0.00118142543 0)
(0.0943854649 0.00113696803 0)
(0.0942731237 0.00108970619 0)
(0.0941664542 0.00103952359 0)
(0.0940655918 0.000986281284 0)
(0.0939706984 0.00092982305 0)
(0.0938819667 0.000869981798 0)
(0.0937996225 0.000806585262 0)
(0.0937239265 0.000739460747 0)
(0.0936551745 0.000668439686 0)
(0.0935936973 0.000593363414 0)
(0.0935398598 0.000514090885 0)
(0.0934940617 0.000430508021 0)
(0.0934567407 0.00034254024 0)
(0.0934283778 0.000250164619 0)
(0.093409513 0.000153430675 0)
(0.0934006986 5.25313179e-05 0)
(0.0934024416 -5.24066583e-05 0)
(0.0934153893 -0.000161359252 0)
(0.0934403846 -0.000274052746 0)
(0.0934782599 -0.000390133153 0)
(0.0935297328 -0.000509203051 0)
(0.0935954382 -0.000630744596 0)
(0.0936759559 -0.000754085772 0)
(0.0937717821 -0.000878402 0)
(0.093883288 -0.00100271663 0)
(0.0940106914 -0.00112590565 0)
(0.0941540289 -0.00124671263 0)
(0.094313126 -0.00136377132 0)
(0.0944875687 -0.001475636 0)
(0.0946766824 -0.00158082102 0)
(0.0948795198 -0.00167784818 0)
(0.0950948585 -0.00176529936 0)
(0.0953212119 -0.00184187122 0)
(0.0955568526 -0.00190642856 0)
(0.0957998495 -0.00195805225 0)
(0.0960481158 -0.00199607841 0)
(0.0962994659 -0.00202012585 0)
(0.0965516778 -0.00203011006 0)
(0.0968025565 -0.0020262428 0)
(0.0970499956 -0.00200901795 0)
(0.0972920319 -0.00197918484 0)
(0.0975268916 -0.00193771173 0)
(0.0977530251 -0.00188574224 0)
(0.0979691301 -0.00182454795 0)
(0.098174163 -0.00175548032 0)
(0.0983673391 -0.00167992461 0)
(0.0985481236 -0.00159925802 0)
(0.098716215 -0.00151481348 0)
(0.0988715227 -0.00142785018 0)
(0.0990141417 -0.00133953092 0)
(0.0991443245 -0.00125090626 0)
(0.099262453 -0.00116290495 0)
(0.0993690124 -0.00107632987 0)
(0.0994645651 -0.000991858465 0)
(0.0995497287 -0.000910046985 0)
(0.0996251556 -0.000831337408 0)
(0.0996915161 -0.000756066351 0)
(0.0997494841 -0.000684475371 0)
(0.099799725 -0.000616722014 0)
(0.0998428872 -0.000552890947 0)
(0.0998795956 -0.000493004725 0)
(0.0999104468 -0.000437033941 0)
(0.0999360051 -0.000384906906 0)
(0.0999568005 -0.000336519058 0)
(0.0999733278 -0.00029174119 0)
(0.099986046 -0.000250425588 0)
(0.0999953774 -0.000212412201 0)
(0.100001706 -0.000177534444 0)
(0.100005375 -0.000145621756 0)
(0.100006694 -0.00011650153 0)
(0.100005965 -9.00003491e-05 0)
(0.100003491 -6.59426548e-05 0)
(0.099999552 -4.41539354e-05 0)
(0.0999943839 -2.44658977e-05 0)
(0.0999881937 -6.72453819e-06 0)
(0.0999810563 9.22641735e-06 0)
(0.0999730162 2.35574724e-05 0)
(0.0999642318 3.63458138e-05 0)
(0.0999548451 4.77068726e-05 0)
(0.0999449561 5.77563091e-05 0)
(0.0999346511 6.65988511e-05 0)
(0.0999240065 7.4335607e-05 0)
(0.0999130912 8.10624587e-05 0)
(0.0999019668 8.68693316e-05 0)
(0.0998906886 9.18403873e-05 0)
(0.0998793065 9.60537101e-05 0)