/*--------------------------------*- C++ -*----------------------------------*\
| =========                 |                                                 |
| \\      /  F ield         | OpenFOAM: The Open Source CFD Toolbox           |
|  \\    /   O peration     | Version:  v2012                                 |
|   \\  /    A nd           | Website:  www.openfoam.com                      |
|    \\/     M anipulation  |                                                 |
\*---------------------------------------------------------------------------*/
FoamFile
{
    version     2.0;
    format      ascii;
    class       volScalarField;
    location    "2.84";
    object      p;
}
// * * * * * * * * * * * * * * * * * * * * * * * * * * * * * * * * * * * * * //

dimensions      [0 2 -2 0 0 0 0];


internalField   nonuniform List<scalar> 
28416
(
-0.00470497685
-0.00470597947
-0.00470807878
-0.00471115243
-0.00471502992
-0.00471963835
-0.00472498352
-0.00473107441
-0.00473789406
-0.0047454871
-0.00475372638
-0.0047624126
-0.0047716579
-0.00478141199
-0.00479168615
-0.00480244734
-0.00481363159
-0.00482516258
-0.00483695218
-0.00484890303
-0.00486091208
-0.00487286952
-0.0048846488
-0.00489607662
-0.00490713189
-0.00491775395
-0.0049278226
-0.00493721148
-0.00494580458
-0.00495348819
-0.00496014919
-0.00496567618
-0.00496995817
-0.00497288397
-0.00497434304
-0.00497422654
-0.00497242818
-0.00496884491
-0.0049633774
-0.00495593039
-0.00494641313
-0.00493474111
-0.00492083905
-0.00490464394
-0.00488610681
-0.00486519273
-0.00484187988
-0.00481615861
-0.0047880305
-0.00475750757
-0.00472461167
-0.00468937418
-0.00465183625
-0.00461204904
-0.00457007394
-0.00452598243
-0.0044798556
-0.00443178323
-0.00438186268
-0.00433019768
-0.00427689714
-0.004222074
-0.00416584427
-0.00410832598
-0.00404963827
-0.00398990041
-0.00392923092
-0.00386774665
-0.00380556205
-0.0037427884
-0.00367953324
-0.00361589998
-0.00355198757
-0.00348789035
-0.00342369819
-0.00335949683
-0.00329536911
-0.00323139748
-0.00316766948
-0.00310428852
-0.00304131834
-0.0029788046
-0.00291679263
-0.00285530325
-0.00279434073
-0.00273387075
-0.00267383112
-0.00261450758
-0.00255581277
-0.00249798483
-0.00244095245
-0.00238471993
-0.00232937185
-0.00227497169
-0.00222156432
-0.0021691983
-0.00211792416
-0.00206778919
-0.00201883737
-0.00197110942
-0.00192464167
-0.00187946497
-0.00183560378
-0.00179307529
-0.0017518887
-0.00171204468
-0.00167353501
-0.00163634255
-0.00160044143
-0.00156579753
-0.00153236914
-0.0015001079
-0.00146895981
-0.00143886645
-0.00140976613
-0.0013815951
-0.00135428878
-0.00132778272
-0.00130201369
-0.00127692041
-0.0012524443
-0.00122853001
-0.00120512583
-0.00118218396
-0.00115966066
-0.00113751627
-0.00111571519
-0.00109422571
-0.00107301997
-0.00105207376
-0.0010313662
-0.00101087929
-0.000990597453
-0.000970507262
-0.000950597268
-0.000930857699
-0.000911279973
-0.000891856283
-0.000872579451
-0.000853442891
-0.000834440262
-0.000815564846
-0.000796809255
-0.000778165848
-0.000759627116
-0.00074118793
-0.00072286142
-0.000704573815
-0.000686391356
-0.000668318346
-0.000650342673
-0.000632466641
-0.000614691314
-0.00059701399
-0.000579432874
-0.000561946768
-0.000544554293
-0.000527253841
-0.000510043634
-0.000492921728
-0.000475886017
-0.000458934255
-0.000442064092
-0.000425273091
-0.000408558753
-0.000391918534
-0.00037534985
-0.00035885008
-0.000342416577
-0.00032604667
-0.000309737659
-0.000293486816
-0.000277291398
-0.000261148631
-0.000245055721
-0.000229009856
-0.000213008201
-0.000197047898
-0.000181126057
-0.000165239785
-0.00014938625
-0.000133562681
-0.000117766343
-0.000101994659
-8.62448606e-05
-7.05153409e-05
-5.48013648e-05
-3.91109941e-05
-2.34152538e-05
-7.84515962e-06
-0.00470051121
-0.00470120763
-0.00470296116
-0.00470581921
-0.00470961372
-0.00471422837
-0.00471964863
-0.00472588407
-0.0047329351
-0.00474082164
-0.0047490801
-0.00475816904
-0.00476784716
-0.00477808876
-0.00478882855
-0.00480001791
-0.00481160299
-0.00482351689
-0.00483568318
-0.00484801743
-0.00486042723
-0.00487281171
-0.00488506295
-0.00489708147
-0.00490877494
-0.00492004012
-0.00493077113
-0.00494085189
-0.00495016389
-0.00495858991
-0.00496601307
-0.00497231673
-0.00497738411
-0.00498109807
-0.00498334131
-0.00498399693
-0.00498294926
-0.00498008512
-0.00497529555
-0.0049684778
-0.00495953705
-0.00494838746
-0.00493495281
-0.00491916745
-0.00490097773
-0.00488034363
-0.00485723946
-0.00483165337
-0.00480358595
-0.00477304884
-0.00474006386
-0.00470466288
-0.00466688816
-0.00462679285
-0.00458444133
-0.004539909
-0.00449328176
-0.004444655
-0.00439413236
-0.00434182441
-0.00428784732
-0.00423232162
-0.00417537091
-0.0041171208
-0.00405769765
-0.00399722756
-0.00393583527
-0.0038736432
-0.00381077067
-0.0037473331
-0.00368344143
-0.00361920171
-0.0035547148
-0.00349007627
-0.00342537663
-0.00336070165
-0.00329613313
-0.00323174986
-0.00316762807
-0.00310383943
-0.00304043795
-0.00297745512
-0.00291491175
-0.00285283257
-0.00279124528
-0.00273021342
-0.00266985148
-0.00261021831
-0.00255123465
-0.00249296718
-0.0024355201
-0.00237891086
-0.0023231784
-0.00226838173
-0.0022145754
-0.00216181228
-0.0021101468
-0.00205963252
-0.00201032056
-0.00196225896
-0.00191549142
-0.001870056
-0.0018259838
-0.00178329782
-0.00174201191
-0.00170213004
-0.00166364576
-0.00162654206
-0.00159079159
-0.00155635718
-0.00152319269
-0.00149124413
-0.00146045102
-0.00143074777
-0.00140206523
-0.00137433218
-0.00134747671
-0.00132142755
-0.00129611515
-0.0012714727
-0.00124743681
-0.00122394817
-0.00120095186
-0.00117839766
-0.00115624004
-0.00113443824
-0.00111295605
-0.00109176169
-0.00107082743
-0.00105012927
-0.00102964663
-0.00100936197
-0.000989260459
-0.000969329469
-0.000949558201
-0.000929937433
-0.000910459369
-0.000891117384
-0.000871905645
-0.000852818764
-0.000833851641
-0.000814999353
-0.000796257093
-0.000777620794
-0.000759088028
-0.000740654983
-0.000722302214
-0.0007041025
-0.000685979804
-0.000667949008
-0.000650012402
-0.000632169208
-0.000614420644
-0.00059676693
-0.000579207203
-0.000561740447
-0.000544365437
-0.000527080716
-0.000509884663
-0.000492775516
-0.000475751362
-0.000458810153
-0.000441949718
-0.000425167783
-0.000408461981
-0.000391829872
-0.00037526895
-0.000358776654
-0.000342350373
-0.000325987463
-0.000309685241
-0.000293440991
-0.000277251977
-0.000261115435
-0.000245028578
-0.000228988604
-0.000212992691
-0.000197038
-0.000181121685
-0.000165240899
-0.000149392814
-0.000133574639
-0.000117783594
-0.000102017022
-8.62720032e-05
-7.05467096e-05
-5.48357114e-05
-3.91463927e-05
-2.34451357e-05
-7.86448757e-06
-0.00469610373
-0.00469694602
-0.00469884785
-0.00470180699
-0.00470568224
-0.00471038046
-0.004715892
-0.00472222678
-0.00472936707
-0.00473726386
-0.00474578523
-0.00475490344
-0.00476471444
-0.00477514649
-0.00478614058
-0.0047976383
-0.00480957324
-0.00482187198
-0.00483445379
-0.0048472302
-0.00486010619
-0.00487298139
-0.00488574881
-0.00489829679
-0.00491052799
-0.00492233365
-0.00493360944
-0.00494424758
-0.00495413263
-0.00496314513
-0.00497116435
-0.00497806885
-0.00498373607
-0.00498804243
-0.00499086417
-0.0049920786
-0.0049915657
-0.00498920962
-0.00498489993
-0.00497853239
-0.00497000936
-0.00495924094
-0.00494614695
-0.00493065881
-0.00491272045
-0.00489228858
-0.00486933297
-0.00484383667
-0.00481579605
-0.00478522044
-0.00475213153
-0.00471656289
-0.00467855976
-0.00463817898
-0.00459548888
-0.00455056898
-0.00450350935
-0.00445440976
-0.00440337856
-0.00435053138
-0.0042959898
-0.00423987989
-0.00418233097
-0.00412347425
-0.00406344161
-0.00400236442
-0.00394037241
-0.0038775926
-0.00381414841
-0.00375015877
-0.00368573756
-0.00362099312
-0.0035560279
-0.00349093839
-0.00342581516
-0.00336074303
-0.00329580143
-0.0032310646
-0.00316660142
-0.00310247439
-0.00303873675
-0.00297543279
-0.00291260468
-0.00285030437
-0.00278858243
-0.0027274733
-0.00266698821
-0.00260695897
-0.00254767045
-0.00248916227
-0.00243145589
-0.00237458683
-0.00231860323
-0.00226355974
-0.00220951058
-0.00215651077
-0.00210461706
-0.00205388626
-0.00200437357
-0.00195613153
-0.00190920852
-0.00186364722
-0.00181948302
-0.00177674259
-0.00173544261
-0.00169558877
-0.0016571752
-0.00162018419
-0.00158458649
-0.00155034184
-0.00151740009
-0.00148570245
-0.00145518308
-0.00142577078
-0.00139739074
-0.00136996623
-0.00134342022
-0.00131767677
-0.00129266231
-0.0012683066
-0.00124454355
-0.00122131176
-0.00119855491
-0.00117622189
-0.00115426684
-0.00113264905
-0.00111133273
-0.00109028669
-0.00106948406
-0.00104890191
-0.00102852087
-0.00100832466
-0.00098829958
-0.000968434282
-0.000948719457
-0.000929147412
-0.000909711604
-0.000890406498
-0.000871227433
-0.000852170092
-0.00083323034
-0.000814404673
-0.000795689772
-0.000777081479
-0.00075857414
-0.00074016205
-0.000721837381
-0.00070361917
-0.000685494892
-0.000667467798
-0.000649537401
-0.000631702664
-0.000613963742
-0.000596320204
-0.000578771079
-0.000561315294
-0.000543951605
-0.000526678532
-0.000509494403
-0.000492397384
-0.000475385496
-0.000458456627
-0.000441608559
-0.000424838981
-0.000408145504
-0.00039152568
-0.000374977001
-0.000358496909
-0.0003420828
-0.000325732037
-0.00030944194
-0.000293209795
-0.000277032863
-0.000260908373
-0.000244833529
-0.000228805519
-0.000212821508
-0.000196878647
-0.000180974083
-0.000165104963
-0.000149268441
-0.000133461695
-0.000117681902
-0.000101926342
-8.61920118e-05
-7.0476985e-05
-5.47758786e-05
-3.90963843e-05
-2.34075234e-05
-7.84513387e-06
-0.00468997906
-0.00469073684
-0.00469255231
-0.00469547414
-0.00469937655
-0.00470416439
-0.00470981861
-0.00471633848
-0.00472369379
-0.00473183426
-0.00474074725
-0.00475039284
-0.00476070024
-0.00477160841
-0.00478307567
-0.00479505139
-0.00480747427
-0.00482027541
-0.00483337816
-0.00484669826
-0.00486014455
-0.00487362038
-0.00488702423
-0.00490023518
-0.00491320145
-0.00492580492
-0.00493791762
-0.00494941016
-0.00496016468
-0.00497006068
-0.00497897396
-0.00498677864
-0.00499334738
-0.00499855167
-0.00500226246
-0.00500435108
-0.00500469016
-0.00500315469
-0.00499962338
-0.00499398082
-0.00498611997
-0.00497594401
-0.00496336737
-0.00494831658
-0.00493073156
-0.00491056654
-0.00488779036
-0.00486238619
-0.0048343508
-0.00480369373
-0.00477043676
-0.00473461379
-0.00469627108
-0.00465546765
-0.00461227533
-0.00456677853
-0.0045190735
-0.00446926723
-0.00441747605
-0.0043638241
-0.00430844174
-0.00425146401
-0.00419302912
-0.00413327696
-0.00407234773
-0.00401038056
-0.00394751227
-0.00388387614
-0.00381960102
-0.00375481034
-0.00368962152
-0.00362414546
-0.00355848615
-0.00349274061
-0.00342699887
-0.00336134409
-0.00329585282
-0.00323059519
-0.00316563493
-0.00310102917
-0.00303682797
-0.00297307452
-0.00290980694
-0.00284705951
-0.00278486094
-0.00272323337
-0.00266220627
-0.0026018666
-0.00254221095
-0.00248328798
-0.00242514921
-0.00236784144
-0.00231141313
-0.00225591866
-0.00220141605
-0.00214796576
-0.00209563049
-0.00204447399
-0.00199455956
-0.00194594836
-0.00189869762
-0.00185285867
-0.0018084749
-0.00176557992
-0.00172419586
-0.00168433208
-0.00164598429
-0.00160913427
-0.00157375006
-0.0015397868
-0.00150718793
-0.00147588691
-0.00144580915
-0.00141687411
-0.00138899745
-0.00136209313
-0.00133607527
-0.00131085984
-0.00128636609
-0.00126251764
-0.00123924333
-0.00121647776
-0.00119416158
-0.00117224162
-0.00115067075
-0.00112940773
-0.00110841682
-0.00108766743
-0.00106713366
-0.0010467938
-0.00102662984
-0.00100662699
-0.000986773254
-0.00096705898
-0.000947476453
-0.0009280195
-0.000908683205
-0.000889463501
-0.000870356838
-0.000851360065
-0.000832470088
-0.000813683621
-0.000794997894
-0.000776411115
-0.000757922073
-0.000739535713
-0.000721246121
-0.000703057548
-0.000684964238
-0.0006669645
-0.000649059522
-0.000631248978
-0.000613532563
-0.000595909895
-0.000578380212
-0.000560942538
-0.000543595731
-0.000526338455
-0.000509169198
-0.000492086295
-0.00047508793
-0.000458172142
-0.000441336841
-0.000424579819
-0.000407898761
-0.000391291265
-0.000374754849
-0.000358286965
-0.00034188501
-0.000325546337
-0.000309268257
-0.000293048049
-0.000276882968
-0.000260770237
-0.000244707062
-0.000228690634
-0.000212718122
-0.000196786686
-0.000180893475
-0.000165035639
-0.000149210319
-0.00013341467
-0.000117645823
-0.000101900996
-8.61770895e-05
-7.04720608e-05
-5.4780137e-05
-3.91086238e-05
-2.34230146e-05
-7.85872842e-06
-0.00468259642
-0.00468338754
-0.00468526392
-0.0046882722
-0.004692283
-0.00469720091
-0.00470301101
-0.0047097164
-0.0047172856
-0.00472563689
-0.00473456223
-0.0047447223
-0.00475542468
-0.00476675866
-0.00477870172
-0.00479119762
-0.00480418521
-0.00481759429
-0.00483134679
-0.0048453592
-0.00485954454
-0.00487381628
-0.00488808578
-0.0049021875
-0.00491603881
-0.00492953749
-0.00494256303
-0.00495500868
-0.00496675142
-0.00497766058
-0.00498760487
-0.00499645188
-0.005004067
-0.00501031359
-0.00501505369
-0.00501814903
-0.00501946249
-0.00501885995
-0.00501621224
-0.00501139637
-0.0050042967
-0.00499480693
-0.00498283291
-0.00496829483
-0.00495112818
-0.00493128375
-0.00490872725
-0.00488343889
-0.00485541302
-0.00482465795
-0.0047911956
-0.00475506143
-0.00471630457
-0.00467498812
-0.00463118917
-0.00458499853
-0.00453651989
-0.00448586866
-0.00443317041
-0.00437855922
-0.00432217585
-0.00426416599
-0.00420467848
-0.0041438637
-0.00408187189
-0.00401885166
-0.00395494854
-0.00389030368
-0.00382505276
-0.00375932494
-0.00369324217
-0.00362691863
-0.00356046037
-0.00349396517
-0.00342752257
-0.00336121403
-0.00329511319
-0.00322928625
-0.00316379222
-0.00309868323
-0.00303400478
-0.00296979638
-0.00290609281
-0.00284292585
-0.00278032523
-0.00271831793
-0.0026569363
-0.00259620392
-0.00253615766
-0.00247684255
-0.00241830343
-0.00236058548
-0.00230373886
-0.00224781987
-0.0021928896
-0.0021390132
-0.00208625943
-0.0020346995
-0.00198440537
-0.00193544769
-0.0018878936
-0.0018418042
-0.00179723199
-0.00175421845
-0.0017127918
-0.0016729653
-0.0016347361
-0.00159808479
-0.00156297568
-0.0015293578
-0.00149716654
-0.00146632573
-0.00143675018
-0.00140834826
-0.00138102458
-0.0013546825
-0.00132922637
-0.00130456349
-0.00128060571
-0.00125727058
-0.00123448222
-0.0012121718
-0.00119027775
-0.00116874572
-0.00114752836
-0.0011265849
-0.00110588073
-0.00108538676
-0.00106507891
-0.0010449375
-0.00102494665
-0.00100509376
-0.000985368977
-0.000965764665
-0.000946275033
-0.000926895722
-0.000907623434
-0.000888455597
-0.000869390174
-0.000850425932
-0.000831562738
-0.000812801031
-0.000794140569
-0.000775578768
-0.000757109163
-0.00073872711
-0.000720450226
-0.000702270035
-0.000684187339
-0.000666200702
-0.000648309622
-0.000630513785
-0.000612812773
-0.000595206065
-0.000577692899
-0.000560272291
-0.000542943061
-0.000525703819
-0.000508552976
-0.000491488776
-0.000474509314
-0.000457612551
-0.000440796337
-0.000424058427
-0.000407396487
-0.000390808113
-0.000374290833
-0.000357842111
-0.000341459357
-0.000325139935
-0.000308881161
-0.000292680314
-0.000276534639
-0.000260441348
-0.000244397627
-0.000228400644
-0.000212447546
-0.000196535466
-0.000180661528
-0.000164822853
-0.000149016554
-0.00013323975
-0.000117489534
-0.000101763076
-8.60572238e-05
-7.03698835e-05
-5.46953682e-05
-3.90412801e-05
-2.3375505e-05
-7.83648567e-06
-0.00467389084
-0.00467470516
-0.00467663332
-0.00467972769
-0.00468386584
-0.00468895784
-0.00469499259
-0.00470197848
-0.00470989951
-0.00471873753
-0.00472857491
-0.00473877383
-0.00474988293
-0.00476173256
-0.00477424179
-0.00478735537
-0.00480100738
-0.00481512621
-0.00482963461
-0.00484444847
-0.00485947509
-0.00487461111
-0.00488976628
-0.00490483254
-0.004919711
-0.00493425401
-0.00494839736
-0.00496199642
-0.00497491116
-0.00498701468
-0.00499817331
-0.00500824673
-0.00501709142
-0.00502456138
-0.0050305086
-0.00503478432
-0.00503724043
-0.00503773112
-0.00503611512
-0.0050322589
-0.00502603962
-0.00501734659
-0.00500608149
-0.00499215816
-0.00497550331
-0.00495605821
-0.0049337804
-0.00490864443
-0.00488064149
-0.00484977869
-0.0048160784
-0.00477957816
-0.00474033083
-0.00469840479
-0.00465388392
-0.00460686707
-0.00455746717
-0.00450580992
-0.00445203214
-0.0043962799
-0.00433870652
-0.0042794705
-0.00421873352
-0.00415665849
-0.00409340764
-0.00402914085
-0.0039640139
-0.00389817708
-0.00383177387
-0.0037649399
-0.0036978021
-0.00363047815
-0.00356307617
-0.00349569454
-0.00342842208
-0.00336133823
-0.00329451344
-0.0032280097
-0.00316188099
-0.00309617392
-0.00303092845
-0.00296617871
-0.00290195421
-0.00283828112
-0.0027751835
-0.00271268432
-0.0026508078
-0.00258958412
-0.0025290443
-0.00246922288
-0.00241016052
-0.00235190343
-0.00229450339
-0.00223801879
-0.00218251483
-0.00212806301
-0.00207474037
-0.00202262814
-0.0019718099
-0.00192236915
-0.00187438641
-0.00182793612
-0.00178308328
-0.00173988022
-0.00169836366
-0.00165855241
-0.00162044577
-0.00158402292
-0.0015492433
-0.00151604787
-0.00148436127
-0.0014540946
-0.00142514862
-0.00139741709
-0.00137079015
-0.00134515737
-0.00132041051
-0.00129644575
-0.00127316554
-0.00125047977
-0.0012283067
-0.00120657328
-0.00118521524
-0.00116417687
-0.00114341054
-0.00112287616
-0.00110254049
-0.00108237639
-0.00106236211
-0.00104248055
-0.00102271854
-0.00100306624
-0.000983516477
-0.000964064305
-0.000944706514
-0.000925441252
-0.000906267696
-0.000887185797
-0.000868195999
-0.000849298865
-0.000830494683
-0.000811783601
-0.000793166156
-0.000774642051
-0.00075619637
-0.000737848052
-0.000719597417
-0.000701442733
-0.000683383416
-0.000665419357
-0.000647550351
-0.00062977616
-0.000612096404
-0.000594510552
-0.00057701786
-0.000559617368
-0.000542307936
-0.000525088243
-0.000507956789
-0.000490911913
-0.000473951798
-0.000457074473
-0.000440277839
-0.00042355967
-0.000406917637
-0.000390349319
-0.000373852217
-0.000357423763
-0.000341061334
-0.000324762261
-0.000308523834
-0.000292343306
-0.000276217909
-0.000260144843
-0.000244121289
-0.000228144414
-0.000212211365
-0.000196319274
-0.000180465267
-0.000164646458
-0.000148859945
-0.000133102826
-0.000117372165
-0.000101665094
-8.59784157e-05
-7.0310002e-05
-5.46540029e-05
-3.90178799e-05
-2.33673104e-05
-7.8397594e-06
-0.00466381756
-0.00466466018
-0.00466665684
-0.00466986177
-0.00467415037
-0.00467943222
-0.00468569815
-0.00469295887
-0.00470119808
-0.00471038008
-0.00472045569
-0.00473129521
-0.00474295066
-0.00475538625
-0.00476854541
-0.00478236007
-0.00479676406
-0.00481168524
-0.00482704408
-0.00484275501
-0.00485873181
-0.00487488924
-0.0048911015
-0.00490734805
-0.00492342251
-0.00493925671
-0.00495468527
-0.00496959479
-0.00498386828
-0.00499736273
-0.00500993145
-0.00502142714
-0.00503169813
-0.00504058837
-0.00504793881
-0.00505358892
-0.00505737862
-0.00505915086
-0.00505875379
-0.0050560422
-0.00505087904
-0.00504313796
-0.00503270614
-0.00501948676
-0.00500340052
-0.00498438567
-0.00496239721
-0.00493740645
-0.00490940125
-0.00487838641
-0.00484438381
-0.00480743261
-0.00476758936
-0.00472492811
-0.00467954027
-0.00463153404
-0.00458103334
-0.00452817637
-0.00447311366
-0.00441600597
-0.00435702189
-0.00429633554
-0.00423412413
-0.00417056576
-0.0041058372
-0.00404011187
-0.00397355797
-0.00390633675
-0.00383860112
-0.00377049444
-0.00370214959
-0.00363368846
-0.00356522149
-0.0034968477
-0.00342865485
-0.0033607198
-0.00329310907
-0.0032258796
-0.00315907947
-0.00309274886
-0.003026921
-0.00296162328
-0.00289687847
-0.00283270606
-0.00276912372
-0.00270614889
-0.0026438012
-0.00258209839
-0.00252106701
-0.00246073851
-0.00240114955
-0.00234234365
-0.00228437223
-0.00222729562
-0.00217118335
-0.00211611383
-0.00206217361
-0.00200945595
-0.00195805866
-0.0019080812
-0.00185962103
-0.00181276963
-0.00176760809
-0.00172420281
-0.00168260157
-0.00164283035
-0.00160489122
-0.00156876141
-0.00153439383
-0.00150171881
-0.00147064695
-0.00144107287
-0.00141287938
-0.00138594182
-0.00136013233
-0.00133532367
-0.00131139252
-0.00128822213
-0.00126570426
-0.00124374055
-0.0012222432
-0.00120113522
-0.00118035023
-0.00115983197
-0.00113953359
-0.00111941676
-0.00109945076
-0.00107961153
-0.00105988071
-0.00104024472
-0.00102069402
-0.00100122229
-0.000981825785
-0.000962502766
-0.000943252962
-0.00092407711
-0.000904976577
-0.000885953083
-0.000867008654
-0.00084814593
-0.000829368411
-0.000810680609
-0.000792089534
-0.000773614454
-0.00075515875
-0.000736823118
-0.000718588018
-0.000700448538
-0.000682404738
-0.000664456639
-0.000646604066
-0.000628846864
-0.000611184731
-0.000593617175
-0.000576143479
-0.000558762697
-0.000541473665
-0.000524275006
-0.000507165153
-0.00049014237
-0.000473204768
-0.000456350317
-0.00043957687
-0.000422882173
-0.000406263875
-0.000389719544
-0.000373246673
-0.000356842687
-0.000340504953
-0.000324230792
-0.000308017476
-0.00029186224
-0.000275762289
-0.000259714796
-0.000243716908
-0.000227765759
-0.000211858458
-0.000195992105
-0.00018016379
-0.000164370593
-0.000148609586
-0.000132877836
-0.000117172381
-0.000101490328
-8.58284586e-05
-7.01846192e-05
-5.45530183e-05
-3.89412574e-05
-2.33165514e-05
-7.81835976e-06
-0.004652329
-0.0046532051
-0.00465528227
-0.00465861728
-0.00466308382
-0.00466859224
-0.00467513628
-0.0046827285
-0.0046913508
-0.00470096086
-0.00471151193
-0.00472293684
-0.00473522275
-0.00474833414
-0.00476221863
-0.0047768193
-0.00479207213
-0.00480790636
-0.00482424484
-0.00484100392
-0.00485808973
-0.00487539876
-0.00489287376
-0.00491037323
-0.00492778487
-0.00494498295
-0.0049618515
-0.00497826444
-0.00499407839
-0.00500914856
-0.00502332459
-0.00503644853
-0.00504835647
-0.00505887975
-0.0050678461
-0.00507508116
-0.00508041016
-0.00508365991
-0.00508466159
-0.00508325468
-0.00507929049
-0.00507263413
-0.00506316511
-0.00505077765
-0.00503538132
-0.0050169021
-0.00499528416
-0.00497049128
-0.00494250707
-0.0049113346
-0.00487699609
-0.00483953314
-0.00479900705
-0.00475549892
-0.00470910942
-0.00465995806
-0.00460818195
-0.00455393412
-0.0044973814
-0.00443870196
-0.00437808261
-0.00431571601
-0.00425179789
-0.0041865244
-0.00412008952
-0.00405268271
-0.0039844867
-0.00391567553
-0.00384641299
-0.00377685119
-0.00370712967
-0.00363737475
-0.00356769926
-0.00349820258
-0.003428971
-0.00336007822
-0.00329158617
-0.00322354592
-0.00315599866
-0.00308897689
-0.00302250565
-0.00295660382
-0.00289128549
-0.00282656152
-0.00276244101
-0.00269893273
-0.00263604675
-0.00257379661
-0.00251220243
-0.00245128717
-0.00239108211
-0.00233162824
-0.00227297666
-0.00221518962
-0.0021583414
-0.00210251842
-0.00204781864
-0.00199435009
-0.0019422284
-0.0018915733
-0.00184250416
-0.0017951347
-0.00174956727
-0.00170588703
-0.00166415658
-0.00162441162
-0.00158665794
-0.00155087023
-0.00151699275
-0.00148494171
-0.00145460926
-0.00142586844
-0.00139857886
-0.00137259231
-0.00134775829
-0.0013239287
-0.0013009619
-0.00127872569
-0.00125709951
-0.00123597569
-0.00121526001
-0.00119487162
-0.00117474249
-0.00115481657
-0.00113504866
-0.0011154032
-0.00109585303
-0.00107637815
-0.00105696457
-0.00103760319
-0.00101828887
-0.000999019565
-0.000979795567
-0.000960618901
-0.000941492835
-0.000922421493
-0.000903409569
-0.000884461996
-0.000865583352
-0.000846777321
-0.000828046543
-0.000809393195
-0.000790817209
-0.0007722966
-0.000753938297
-0.000735644645
-0.000717438149
-0.000699323791
-0.000681302968
-0.00066337697
-0.000645546388
-0.000627811386
-0.000610171833
-0.000592627297
-0.000575177082
-0.00055782025
-0.00054055564
-0.000523381873
-0.000506297377
-0.000489300407
-0.000472389059
-0.00045556128
-0.000438814891
-0.000422147601
-0.000405557017
-0.000389040662
-0.000372595985
-0.000356220367
-0.000339911135
-0.000323665572
-0.000307480919
-0.000291354381
-0.000275283143
-0.000259264357
-0.000243295162
-0.000227372678
-0.000211494013
-0.000195656258
-0.000179856495
-0.000164091799
-0.000148359224
-0.000132655822
-0.000116978609
-0.000101324672
-8.56907682e-05
-7.00747377e-05
-5.44707201e-05
-3.88862817e-05
-2.32873396e-05
-7.81251901e-06
-0.00463936931
-0.00464028351
-0.00464245189
-0.00464593294
-0.00465059639
-0.00465635143
-0.00466319382
-0.00467113804
-0.0046801668
-0.00469023911
-0.00470131279
-0.00471334977
-0.00472631696
-0.00474017062
-0.0047548627
-0.00477033781
-0.00478653348
-0.0048033799
-0.0048207991
-0.00483870368
-0.00485699432
-0.00487554251
-0.00489442753
-0.00491336442
-0.00493227587
-0.00495104933
-0.00496955954
-0.00498766205
-0.00500521622
-0.0050220719
-0.00503806767
-0.00505303469
-0.00506679744
-0.0050791738
-0.00508997641
-0.00509901455
-0.00510609669
-0.00511103354
-0.00511364117
-0.00511374348
-0.0051111745
-0.00510578117
-0.00509742615
-0.00508598964
-0.00507137043
-0.00505348665
-0.00503227594
-0.00500769557
-0.0049797231
-0.00494835745
-0.00491361976
-0.00487555376
-0.00483422603
-0.00478972588
-0.00474216491
-0.00469167602
-0.00463841201
-0.00458254362
-0.00452425715
-0.00446375158
-0.00440123548
-0.00433692368
-0.00427103399
-0.00420378405
-0.0041353883
-0.00406605519
-0.0039959846
-0.00392536563
-0.00385437473
-0.00378317419
-0.00371191112
-0.00364071685
-0.00356970662
-0.00349897986
-0.00342862061
-0.00335869836
-0.00328926905
-0.00322037634
-0.00315205291
-0.00308432193
-0.00301719858
-0.00295069151
-0.0028848045
-0.00281953791
-0.00275489037
-0.00269086015
-0.00262744722
-0.00256465848
-0.00250250037
-0.00244098858
-0.00238014801
-0.00232001481
-0.00226063766
-0.00220207952
-0.00214441909
-0.00208775139
-0.00203218751
-0.00197785318
-0.00192488608
-0.00187343161
-0.00182363731
-0.00177564602
-0.00172958823
-0.00168557418
-0.00164368648
-0.00160397397
-0.0015664476
-0.00153107871
-0.00149779998
-0.00146650885
-0.00143707301
-0.00140933728
-0.00138313119
-0.00135827656
-0.00133459443
-0.00131191114
-0.00129006303
-0.00126889995
-0.00124828751
-0.00122810817
-0.00120826145
-0.0011886634
-0.00116924555
-0.00114995347
-0.00113074523
-0.00111158969
-0.00109246486
-0.00107335636
-0.00105425596
-0.00103516031
-0.00101606983
-0.000996987722
-0.000977919206
-0.000958870813
-0.000939849817
-0.000920863709
-0.00090191981
-0.000883025205
-0.000864186952
-0.00084541202
-0.00082670609
-0.000808072318
-0.000789521665
-0.000771051539
-0.00075268241
-0.000734399556
-0.000716205525
-0.000698104521
-0.000680098258
-0.000662187836
-0.000644373935
-0.00062665678
-0.000609036251
-0.000591511917
-0.000574083051
-0.000556748663
-0.000539507529
-0.00052235821
-0.000505299075
-0.000488328316
-0.000471443968
-0.000454643919
-0.000437925933
-0.000421287662
-0.000404726661
-0.000388240403
-0.000371826286
-0.000355481648
-0.000339203769
-0.000322989891
-0.000306837213
-0.000290742902
-0.0002747041
-0.000258717923
-0.000242781468
-0.000226891818
-0.00021104604
-0.000195241189
-0.000179474315
-0.000163742461
-0.000148042657
-0.000132371934
-0.000116727291
-0.000101105805
-8.55042261e-05
-6.99203851e-05
-5.43484669e-05
-3.87960913e-05
-2.32301806e-05
-7.79041428e-06
-0.00462487488
-0.00462583094
-0.0046280994
-0.00463174054
-0.00463661996
-0.00464264607
-0.00464981751
-0.00465815167
-0.00466763327
-0.00467822348
-0.00468988365
-0.00470257996
-0.00471627792
-0.00473093579
-0.00474650522
-0.00476293266
-0.00478015776
-0.00479811286
-0.00481672348
-0.00483591015
-0.00485559304
-0.00487570939
-0.00489598284
-0.00491647729
-0.00493704747
-0.00495756237
-0.00497788338
-0.00499787085
-0.00501737528
-0.00503623624
-0.005054282
-0.00507133136
-0.00508719436
-0.005101673
-0.00511456287
-0.00512565527
-0.00513473973
-0.00514160678
-0.00514605134
-0.00514787675
-0.00514689879
-0.00514294857
-0.00513587405
-0.00512554093
-0.00511183374
-0.00509465669
-0.0050739349
-0.00504961576
-0.00502167025
-0.0049900938
-0.00495490688
-0.00491615574
-0.00487391279
-0.0048282766
-0.0047793713
-0.0047273454
-0.00467237015
-0.00461463725
-0.00455435609
-0.00449175043
-0.00442705473
-0.00436051023
-0.00429236103
-0.00422285032
-0.00415221678
-0.00408069125
-0.00400849374
-0.00393583083
-0.00386289354
-0.00378985563
-0.00371687252
-0.00364408068
-0.00357159752
-0.00349952179
-0.00342793432
-0.00335689912
-0.00328646476
-0.00321666595
-0.00314752513
-0.00307905431
-0.00301125679
-0.00294412895
-0.00287766198
-0.00281184367
-0.00274666019
-0.00268209742
-0.00261814229
-0.00255478744
-0.0024920327
-0.00242988166
-0.00236834918
-0.00230746479
-0.00224727312
-0.00218783661
-0.00212923776
-0.00207158062
-0.00201499115
-0.00195961614
-0.00190562033
-0.00185318154
-0.00180248368
-0.00175370784
-0.00170702205
-0.00166257038
-0.00162046264
-0.00158076568
-0.00154349753
-0.00150862497
-0.00147606496
-0.00144568957
-0.00141733381
-0.0013908052
-0.00136589417
-0.00134238413
-0.00132006055
-0.00129871842
-0.00127816792
-0.00125823826
-0.00123877988
-0.00121966517
-0.00120078805
-0.00118206278
-0.00116342213
-0.00114481527
-0.00112620555
-0.00110756824
-0.0010888884
-0.00107015898
-0.00105137906
-0.00103255235
-0.00101368591
-0.000994789125
-0.000975872794
-0.000956948473
-0.000938028004
-0.000919123193
-0.000900245475
-0.000881405413
-0.000862612266
-0.000843874593
-0.000825200608
-0.000806589946
-0.000788056768
-0.000769609685
-0.000751252428
-0.000732985928
-0.000714810217
-0.000696727691
-0.000678740422
-0.000660849758
-0.000643056569
-0.00062536124
-0.000607763728
-0.000590263636
-0.000572860238
-0.000555552524
-0.000538339231
-0.000521218859
-0.000504189697
-0.000487249847
-0.000470397253
-0.000453629714
-0.000436944908
-0.000420340411
-0.000403813703
-0.00038736219
-0.00037098321
-0.000354674042
-0.000338431914
-0.000322254019
-0.00030613751
-0.000290079514
-0.000274077138
-0.000258127467
-0.000242227571
-0.000226374514
-0.000210565345
-0.000194797106
-0.000179066831
-0.000163371549
-0.000147708277
-0.000132074029
-0.00011646579
-0.000100880618
-8.53152532e-05
-6.97675233e-05
-5.42315831e-05
-3.87150286e-05
-2.31840383e-05
-7.77747768e-06
-0.0046087758
-0.00460977711
-0.00461215385
-0.00461596806
-0.00462108062
-0.0046273988
-0.00463492414
-0.00464367722
-0.00465364521
-0.00466479213
-0.00467708269
-0.00469048654
-0.00470497111
-0.00472049555
-0.00473701356
-0.0047544736
-0.00477281753
-0.00479197977
-0.00481188736