/*--------------------------------*- C++ -*----------------------------------*\
| =========                 |                                                 |
| \\      /  F ield         | OpenFOAM: The Open Source CFD Toolbox           |
|  \\    /   O peration     | Version:  v2012                                 |
|   \\  /    A nd           | Website:  www.openfoam.com                      |
|    \\/     M anipulation  |                                                 |
\*---------------------------------------------------------------------------*/
FoamFile
{
    version     2.0;
    format      ascii;
    class       surfaceScalarField;
    location    "2.84";
    object      phi;
}
// * * * * * * * * * * * * * * * * * * * * * * * * * * * * * * * * * * * * * //

dimensions      [0 3 -1 0 0 0 0];
oriented        oriented;


internalField   nonuniform List<scalar> 
56481
(
6.66713502e-07
-1.00069611e-10
6.66844159e-07
-3.18146317e-10
6.67060039e-07
-5.52691288e-10
6.6735284e-07
-7.67936494e-10
6.67700451e-07
-9.14269067e-10
6.68069964e-07
-9.52433499e-10
6.68423934e-07
-8.67574338e-10
6.6872647e-07
-6.68972721e-10
6.68947111e-07
-3.81960912e-10
6.69069101e-07
-3.23032864e-11
6.69129102e-07
3.15907523e-10
6.69116684e-07
6.49867068e-10
6.69038069e-07
9.28643953e-10
6.68906812e-07
1.13150665e-09
6.68740559e-07
1.24767155e-09
6.68557724e-07
1.27657847e-09
6.68375615e-07
1.22552123e-09
6.68209398e-07
1.10667855e-09
6.68071295e-07
9.35796653e-10
6.67969532e-07
7.33022057e-10
6.67906811e-07
5.24674231e-10
6.67878446e-07
3.43435112e-10
6.6786908e-07
2.2545306e-10
6.67858656e-07
2.01122976e-10
6.67820728e-07
2.89904227e-10
6.67725756e-07
4.92885441e-10
6.67548758e-07
7.92331158e-10
6.67273207e-07
1.15643817e-09
6.66892688e-07
1.54599808e-09
6.6641056e-07
1.92184678e-09
6.65838084e-07
2.25082545e-09
6.65191759e-07
2.5091766e-09
6.64490635e-07
2.68356122e-09
6.63754152e-07
2.77043367e-09
6.63000679e-07
2.77466719e-09
6.62246529e-07
2.70818075e-09
6.61505059e-07
2.58895039e-09
6.60785525e-07
2.4403243e-09
6.6009161e-07
2.29014148e-09
6.59419966e-07
2.16895237e-09
6.58759464e-07
2.10682004e-09
6.58091942e-07
2.12874783e-09
6.57394893e-07
2.24955636e-09
6.56645668e-07
2.46968328e-09
6.55826072e-07
2.77354334e-09
6.54926005e-07
3.13156419e-09
6.53945184e-07
3.50588343e-09
6.52892614e-07
3.85837061e-09
6.51784108e-07
4.15869177e-09
6.50638657e-07
4.38999311e-09
6.49474683e-07
4.55056545e-09
6.48307161e-07
4.65126477e-09
6.47146215e-07
4.70995204e-09
6.45997271e-07
4.74513254e-09
6.44862367e-07
4.77096414e-09
6.43741924e-07
4.79494746e-09
6.42636282e-07
4.81837035e-09
6.41546604e-07
4.8385571e-09
6.40475055e-07
4.85155582e-09
6.39424487e-07
4.85414965e-09
6.38397952e-07
4.84470873e-09
6.3739828e-07
4.82303217e-09
6.3642788e-07
4.78967647e-09
6.35488717e-07
4.74527869e-09
6.34582409e-07
4.69015706e-09
6.33710338e-07
4.62423245e-09
6.32873736e-07
4.54714639e-09
6.32073733e-07
4.45841425e-09
6.31311375e-07
4.35754392e-09
6.3058764e-07
4.24407658e-09
6.29903463e-07
4.11757574e-09
6.29259764e-07
3.97761894e-09
6.28657487e-07
3.82379268e-09
6.28097642e-07
3.65569668e-09
6.27581352e-07
3.47296959e-09
6.27109911e-07
3.27530785e-09
6.26684889e-07
3.06246656e-09
6.26308366e-07
2.8342342e-09
6.25983152e-07
2.59025779e-09
6.25711775e-07
2.32971929e-09
6.25495867e-07
2.05132397e-09
6.25337811e-07
1.75431958e-09
6.25238326e-07
1.43994431e-09
6.25197386e-07
1.10789226e-09
6.25213366e-07
7.59128153e-10
6.25281469e-07
3.96993695e-10
6.25389547e-07
3.01288396e-11
6.25577294e-07
-3.58997826e-10
6.2584872e-07
-7.42273616e-10
6.26202894e-07
-1.13185096e-09
6.26639237e-07
-1.52834526e-09
6.27157288e-07
-1.92978047e-09
6.27756787e-07
-2.33451785e-09
6.28437182e-07
-2.7403217e-09
6.29197394e-07
-3.14418676e-09
6.3003573e-07
-3.54271395e-09
6.30949773e-07
-3.93225036e-09
6.31936286e-07
-4.3089148e-09
6.32991176e-07
-4.66866865e-09
6.341095e-07
-5.00742977e-09
6.35285498e-07
-5.32118951e-09
6.36512655e-07
-5.60613122e-09
6.37783777e-07
-5.85877046e-09
6.39091087e-07
-6.07607437e-09
6.40426345e-07
-6.25557533e-09
6.41780976e-07
-6.39544334e-09
6.43146227e-07
-6.49455876e-09
6.44513325e-07
-6.55252388e-09
6.45873651e-07
-6.56967473e-09
6.47218901e-07
-6.54704771e-09
6.48541237e-07
-6.48633575e-09
6.49833415e-07
-6.38980599e-09
6.51088895e-07
-6.26022274e-09
6.52301918e-07
-6.10074848e-09
6.53467556e-07
-5.91482923e-09
6.54581734e-07
-5.70609857e-09
6.55641232e-07
-5.47827487e-09
6.5664366e-07
-5.23505827e-09
6.57587417e-07
-4.98005618e-09
6.58471641e-07
-4.71671191e-09
6.59296135e-07
-4.44824012e-09
6.60061302e-07
-4.17759247e-09
6.60768068e-07
-3.90742285e-09
6.61417806e-07
-3.64007416e-09
6.62012263e-07
-3.37756503e-09
6.62553487e-07
-3.12159907e-09
6.63043762e-07
-2.87357439e-09
6.63485545e-07
-2.63459423e-09
6.63881419e-07
-2.40549149e-09
6.64234056e-07
-2.18685243e-09
6.6454618e-07
-1.97904125e-09
6.64820528e-07
-1.78223283e-09
6.65059821e-07
-1.59644049e-09
6.65266747e-07
-1.42154087e-09
6.65443957e-07
-1.25730425e-09
6.65594058e-07
-1.10342292e-09
6.65719581e-07
-9.59540924e-10
6.65822978e-07
-8.25285982e-10
6.6590661e-07
-7.0029255e-10
6.6597274e-07
-5.84220876e-10
6.66023476e-07
-4.76774675e-10
6.66060683e-07
-3.77697295e-10
6.66085861e-07
-2.86755301e-10
6.66100059e-07
-2.03730644e-10
6.66103865e-07
-1.28348088e-10
6.66097486e-07
-6.01083521e-11
6.66080745e-07
2.00484429e-12
6.66058849e-07
5.70169349e-11
6.66031163e-07
1.073964e-10
6.65997697e-07
1.52196474e-10
6.65958809e-07
1.91877158e-10
6.65915085e-07
2.26835935e-10
6.65867164e-07
2.57479469e-10
6.65815646e-07
2.84240911e-10
6.65761081e-07
3.07516832e-10
6.65703973e-07
3.27651961e-10
6.65644788e-07
3.44952764e-10
6.65583946e-07
3.59692275e-10
6.65521825e-07
3.72112193e-10
6.65458758e-07
3.82426731e-10
6.6539504e-07
3.90826117e-10
6.65330923e-07
3.97481062e-10
6.65266626e-07
4.02545804e-10
6.65202337e-07
4.0616219e-10
6.65138218e-07
4.08460791e-10
6.65074411e-07
4.09563038e-10
6.65011039e-07
4.09581632e-10
6.64948209e-07
4.08621473e-10
6.64886019e-07
4.06779251e-10
6.64824555e-07
4.04144267e-10
6.64763893e-07
4.00798531e-10
6.647041e-07
3.96816206e-10
6.64645238e-07
3.92264352e-10
6.64587358e-07
3.87203128e-10
6.64530506e-07
3.81685559e-10
6.6447472e-07
3.75758694e-10
6.64420031e-07
3.69464303e-10
6.64366466e-07
3.6283908e-10
6.64314047e-07
3.55915701e-10
6.64262793e-07
3.48722332e-10
6.6421272e-07
3.41283411e-10
6.64163845e-07
3.33619401e-10
6.64116181e-07
3.25747574e-10
6.64069748e-07
3.17679352e-10
6.64024571e-07
3.09426945e-10
6.6398069e-07
3.00960071e-10
6.63938149e-07
2.92378155e-10
6.6389711e-07
2.83104485e-10
6.63857531e-07
2.75237455e-10
2.59048157e-10
6.6669619e-07
-1.29659332e-10
6.66811647e-07
-4.33603407e-10
6.67021458e-07
-7.62502764e-10
6.67323153e-07
-1.06963142e-09
6.67696926e-07
-1.28804149e-09
6.68107334e-07
-1.36284226e-09
6.68511447e-07
-1.27168703e-09
6.68867737e-07
-1.02526254e-09
6.69143613e-07
-6.57836656e-10
6.69328723e-07
-2.17413328e-10
6.69392823e-07
2.51807395e-10
6.6935485e-07
6.87840034e-10
6.69233101e-07
1.05039254e-09
6.69049632e-07
1.31497552e-09
6.68827601e-07
1.46970307e-09
6.68590112e-07
1.51406753e-09
6.68358954e-07
1.45667919e-09
6.68153503e-07
1.31212918e-09
6.67989922e-07
1.0993779e-09
6.67879777e-07
8.43167224e-10
6.67827646e-07
5.76805076e-10
6.67828406e-07
3.42675564e-10
6.6786638e-07
1.87478206e-10
6.67914808e-07
1.52695794e-10
6.67940492e-07
2.64220063e-10
6.6790786e-07
5.25516773e-10
6.67784619e-07
9.15572951e-10
6.67547552e-07
1.39350446e-09
6.67185819e-07
1.90773196e-09
6.66701464e-07
2.40620083e-09
6.66107582e-07
2.84470835e-09
6.65425022e-07
3.19173602e-09
6.64678767e-07
3.42981626e-09
6.6389476e-07
3.55444045e-09
6.63097568e-07
3.57185989e-09
6.62308757e-07
3.49699133e-09
6.61545609e-07
3.35209813e-09
6.60819769e-07
3.16616447e-09
6.60135729e-07
2.97418181e-09
6.59489445e-07
2.81523619e-09
6.58867697e-07
2.7285677e-09
6.58248845e-07
2.74760031e-09
6.57605389e-07
2.89301273e-09
6.56908254e-07
3.16681762e-09
6.56132095e-07
3.54970285e-09
6.55260364e-07
4.00329476e-09
6.54288719e-07
4.47752834e-09
6.53225654e-07
4.92143624e-09
6.52090113e-07
5.29423279e-09
6.5090683e-07
5.57327602e-09
6.49700851e-07
5.75654438e-09
6.48492884e-07
5.85923133e-09
6.47296688e-07
5.90614844e-09
6.4611888e-07
5.92294026e-09
6.44960699e-07
5.92914518e-09
6.43820674e-07
5.93497241e-09
6.42697106e-07
5.94193798e-09
6.41589613e-07
5.94605031e-09
6.40499545e-07
5.94162408e-09
6.39429558e-07
5.92413648e-09
6.38382839e-07
5.89142796e-09
6.37362417e-07
5.84345365e-09
6.36370798e-07
5.78129591e-09
6.35409907e-07
5.70617009e-09
6.34481228e-07
5.61883518e-09
6.33585989e-07
5.51947161e-09
6.32725289e-07
5.407847e-09
6.31900167e-07
5.28353597e-09
6.31111626e-07
5.14608528e-09
6.30360635e-07
4.99506699e-09
6.29648153e-07
4.83005781e-09
6.28975154e-07
4.65061802e-09
6.2834267e-07
4.45627662e-09
6.27751836e-07
4.24653079e-09
6.27203934e-07
4.02087163e-09
6.26700441e-07
3.77880051e-09
6.26243081e-07
3.51982648e-09
6.2583386e-07
3.24345563e-09
6.25474977e-07
2.94914116e-09
6.25168431e-07
2.63626516e-09
6.2491553e-07
2.30422443e-09
6.24717095e-07
1.95275439e-09
6.2457447e-07
1.58257009e-09
6.24489177e-07
1.19318448e-09
6.24464496e-07
7.83809523e-10
6.24507091e-07
3.54398518e-10
6.24629691e-07
-9.24712003e-11
6.24813861e-07
-5.43167578e-10
6.25076547e-07
-1.0049597e-09
6.25420258e-07
-1.47556169e-09
6.25847465e-07
-1.95555229e-09
6.26360271e-07
-2.44258685e-09
6.26959591e-07
-2.93383742e-09
6.27645609e-07
-3.42634031e-09
6.28417912e-07
-3.91648926e-09
6.29275305e-07
-4.40010667e-09
6.3021569e-07
-4.87263593e-09
6.31236e-07
-5.3292248e-09
6.32332145e-07
-5.76481385e-09
6.33498997e-07
-6.17428173e-09
6.34730407e-07
-6.55259919e-09
6.36019256e-07
-6.8949799e-09
6.37357541e-07
-7.19705549e-09
6.38736493e-07
-7.45502658e-09
6.40146727e-07
-7.66580973e-09
6.4157842e-07
-7.82713582e-09
6.4302151e-07
-7.93764862e-09
6.44465912e-07
-7.99692617e-09
6.45901735e-07
-8.00549761e-09
6.47319486e-07
-7.96479939e-09
6.48710264e-07
-7.87711329e-09
6.50065912e-07
-7.74545385e-09
6.51379149e-07
-7.57345991e-09
6.5264366e-07
-7.36525902e-09
6.53854144e-07
-7.12531412e-09
6.55006341e-07
-6.85829463e-09
6.56097008e-07
-6.56894219e-09
6.57123889e-07
-6.261939e-09
6.58085646e-07
-5.94181368e-09
6.58981787e-07
-5.61285334e-09
6.59812574e-07
-5.27902667e-09
6.60578926e-07
-4.94394488e-09
6.61282328e-07
-4.61082399e-09
6.61924727e-07
-4.28247388e-09
6.62508451e-07
-3.96128852e-09
6.63036115e-07
-3.64926336e-09
6.63510554e-07
-3.3480132e-09
6.6393475e-07
-3.05879064e-09
6.64311778e-07
-2.78251873e-09
6.64644747e-07
-2.51982222e-09
6.64936767e-07
-2.27106085e-09
6.65190908e-07
-2.03637437e-09
6.65410185e-07
-1.81571716e-09
6.65597525e-07
-1.60888039e-09
6.65755745e-07
-1.41552428e-09
6.6588754e-07
-1.23521799e-09
6.65995474e-07
-1.06747474e-09
6.6608196e-07
-9.11772485e-10
6.66149238e-07
-7.67570693e-10
6.66199344e-07
-6.34326276e-10
6.66234078e-07
-5.11509402e-10
6.66255015e-07
-3.98634221e-10
6.6626355e-07
-2.95289791e-10
6.66261016e-07
-2.01196405e-10
6.66248764e-07
-1.16096831e-10
6.66228223e-07
-3.95668403e-11
6.66200638e-07
2.95892578e-11
6.66166034e-07
9.16207764e-11
6.66126023e-07
1.47408098e-10
6.66081214e-07
1.97005678e-10
6.66032211e-07
2.40879886e-10
6.6597951e-07
2.79536411e-10
6.65923573e-07
3.13416648e-10
6.65864862e-07
3.42951809e-10
6.65803827e-07
3.68552573e-10
6.65740885e-07
3.90593327e-10
6.65676424e-07
4.09413713e-10
6.65610796e-07
4.2532093e-10
6.65544317e-07
4.38590816e-10
6.65477273e-07
4.49471172e-10
6.65409914e-07
4.58184599e-10
6.65342463e-07
4.64932357e-10
6.65275112e-07
4.69896648e-10
6.6520803e-07
4.73244498e-10
6.65141362e-07
4.75128642e-10
6.65075235e-07
4.75689966e-10
6.65009758e-07
4.75058124e-10
6.64945027e-07
4.73352808e-10
6.64881123e-07
4.70683491e-10
6.64818116e-07
4.67150587e-10
6.64756069e-07
4.62845793e-10
6.64695034e-07
4.57851698e-10
6.64635055e-07
4.52242874e-10
6.64576172e-07
4.46086274e-10
6.64518417e-07
4.39441043e-10
6.64461815e-07
4.32359812e-10
6.6440639e-07
4.2488931e-10
6.64352159e-07
4.17070313e-10
6.64299136e-07
4.08938826e-10
6.64247333e-07
4.00525836e-10
6.64196758e-07
3.91858026e-10
6.6414742e-07
3.82957121e-10
6.64099327e-07
3.73840919e-10
6.64052486e-07
3.64520015e-10
6.64006905e-07
3.55008279e-10
6.63962595e-07
3.45269496e-10
6.63919527e-07
3.35446781e-10
6.63877736e-07
3.24894899e-10
6.63836666e-07
3.16307743e-10
2.98767301e-10
6.66705696e-07
-1.68655326e-10
6.66827897e-07
-5.55804665e-10
6.67041415e-07
-9.76020772e-10
6.67342352e-07
-1.37056765e-09
6.67710747e-07
-1.65643655e-09
6.68113109e-07
-1.76520436e-09
6.6850932e-07
-1.66789854e-09
6.68860115e-07
-1.37605749e-09
6.6913327e-07
-9.30991759e-10
6.69307717e-07
-3.9186015e-10
6.69384568e-07
1.74956577e-10
6.6936592e-07
7.06488194e-10
6.692634e-07
1.15291197e-09
6.69096713e-07
1.48166279e-09
6.68889035e-07
1.67738097e-09
6.68663673e-07
1.73942954e-09
6.6844232e-07
1.67803197e-09
6.68244152e-07
1.51029784e-09
6.68085014e-07
1.25851543e-09
6.67976213e-07
9.51968077e-10
6.67922636e-07
6.3038193e-10
6.6792052e-07
3.44791878e-10
6.67955297e-07
1.52701687e-10
6.68000842e-07
1.07150837e-10
6.68023414e-07
2.41647616e-10
6.67988197e-07
5.60733599e-10
6.67864824e-07
1.03894608e-09
6.67631793e-07
1.62653558e-09
6.67278733e-07
2.26079238e-09
6.66806858e-07
2.87807529e-09
6.66227586e-07
3.42398013e-09
6.65559819e-07
3.85950383e-09
6.6482677e-07
4.16286457e-09
6.64053068e-07
4.32814247e-09
6.63262469e-07
4.36245878e-09
6.62476181e-07
4.28327973e-09
6.61711503e-07
4.11677574e-09
6.60980457e-07
3.89721116e-09
6.6028823e-07
3.66640897e-09
6.59631669e-07
3.47179645e-09
6.58998456e-07
3.36178132e-09
6.58367757e-07
3.37829933e-09
6.57712846e-07
3.5479235e-09
6.57005467e-07
3.87419632e-09
6.56221028e-07
4.33414164e-09
6.55343344e-07
4.88097898e-09
6.54367717e-07
5.45315565e-09
6.53301542e-07
5.98761119e-09
6.52162254e-07
6.43352084e-09
6.50973179e-07
6.76235058e-09
6.49758504e-07
6.97121928e-09
6.48538819e-07
7.07891685e-09
6.47328419e-07
7.11654875e-09
6.46134844e-07
7.11651473e-09
6.44960317e-07
7.10367232e-09
6.43804158e-07
7.09113159e-09
6.42665145e-07
7.08095101e-09
6.41543066e-07
7.06812879e-09
6.40439232e-07
7.04545863e-09
6.3935616e-07
7.0072078e-09
6.38296896e-07
6.95069281e-09
6.37264361e-07
6.87598775e-09
6.36260995e-07
6.78466285e-09
6.3528867e-07
6.67849435e-09
6.34348819e-07
6.55868621e-09
6.33442597e-07
6.42569369e-09
6.3257102e-07
6.27942408e-09
6.31735039e-07
6.11951672e-09
6.3093557e-07
5.94555495e-09
6.30173502e-07
5.75713426e-09
6.29449726e-07
5.55383409e-09
6.28765158e-07
5.33518605e-09
6.28120784e-07
5.10065098e-09
6.27517698e-07
4.84961608e-09
6.26957145e-07
4.58142483e-09
6.26440547e-07
4.29539912e-09
6.25969526e-07
3.99084707e-09
6.25545905e-07
3.66707619e-09
6.25171653e-07
3.32339337e-09
6.24848801e-07
2.95911785e-09
6.24579394e-07
2.57363141e-09
6.24365689e-07
2.16645861e-09
6.24210869e-07
1.73739092e-09
6.24117904e-07
1.28614928e-09
6.24088468e-07
8.13245358e-10
6.24120523e-07
3.22343613e-10
6.24214774e-07
-1.86722022e-10
6.24385216e-07
-7.13609685e-10
6.24634932e-07
-1.25467598e-09
6.24968187e-07
-1.80881641e-09
6.25386949e-07
-2.37431452e-09
6.2589324e-07
-2.94887783e-09
6.2648881e-07
-3.52940778e-09
6.27174647e-07
-4.11217678e-09
6.27950941e-07
-4.69278366e-09
6.28817021e-07
-5.26618639e-09
6.29771216e-07
-5.82683122e-09
6.30810756e-07
-6.3687651e-09
6.31931698e-07
-6.88575571e-09
6.33128885e-07
-7.37146851e-09
6.34395947e-07
-7.81966081e-09
6.35725343e-07
-8.22437628e-09
6.37108457e-07
-8.58016984e-09
6.38535736e-07
-8.88230482e-09
6.39996871e-07
-9.12694544e-09
6.41481025e-07
-9.31128929e-09
6.42977072e-07
-9.43369624e-09
6.44473866e-07
-9.49371965e-09
6.45960494e-07
-9.49212575e-09
6.47426529e-07
-9.43083416e-09
6.48862247e-07
-9.31283136e-09
6.50258813e-07
-9.14201953e-09
6.51608421e-07
-8.92306824e-09
6.52904395e-07
-8.66123335e-09
6.54141237e-07
-8.36215635e-09
6.55314638e-07
-8.03169522e-09
6.56421448e-07
-7.6757525e-09
6.5745962e-07
-7.30011055e-09
6.58428121e-07
-6.91031498e-09
6.59326837e-07
-6.51156929e-09
6.60156456e-07
-6.10864597e-09
6.60918356e-07
-5.70584481e-09
6.61614487e-07
-5.30695492e-09
6.62247263e-07
-4.91524927e-09
6.62819455e-07
-4.53348067e-09
6.633341e-07
-4.16390848e-09
6.63794412e-07
-3.80832563e-09
6.6420371e-07
-3.4680886e-09
6.64565357e-07
-3.14416576e-09
6.64882716e-07
-2.83718075e-09
6.65159107e-07
-2.54745193e-09
6.65397772e-07
-2.27503961e-09
6.65601843e-07
-2.01978838e-09
6.65774329e-07
-1.78136631e-09
6.65918107e-07
-1.55930199e-09
6.66035914e-07
-1.35302528e-09
6.66130331e-07
-1.16189085e-09
6.66203781e-07
-9.85222996e-10
6.66258562e-07
-8.22351379e-10
6.66296865e-07
-6.72629148e-10
6.66320768e-07
-5.35413015e-10
6.66332204e-07
-4.10069981e-10
6.6633286e-07
-2.95945716e-10
6.66324025e-07
-1.92361515e-10
6.6630655e-07
-9.86215139e-11
6.6628121e-07
-1.42275456e-11
6.66248321e-07
6.24782761e-11
6.66209099e-07
1.30843639e-10
6.6616461e-07
1.91897016e-10
6.66115498e-07
2.46117748e-10
6.66062346e-07
2.94031113e-10
6.66005721e-07
3.36161789e-10
6.65946139e-07
3.72998765e-10
6.65884079e-07
4.05011652e-10
6.65819987e-07
4.32644957e-10
6.65754271e-07
4.56308508e-10
6.65687307e-07
4.76378041e-10
6.65619431e-07
4.93197079e-10
6.65550944e-07
5.07077626e-10
6.65482112e-07
5.1830283e-10
6.65413168e-07
5.27128819e-10
6.65344313e-07
5.33787806e-10
6.6527572e-07
5.38489659e-10
6.65207539e-07
5.4142569e-10
6.65139898e-07
5.42769415e-10
6.65072908e-07
5.42679404e-10
6.65006666e-07
5.41300241e-10
6.64941255e-07
5.38764317e-10
6.64876746e-07
5.35191896e-10
6.64813204e-07
5.30692792e-10
6.64750683e-07
5.2536705e-10
6.6468923e-07
5.19304736e-10
6.64628885e-07
5.12587329e-10
6.64569683e-07
5.05288254e-10
6.64511652e-07
4.97472637e-10
6.64454813e-07
4.89198677e-10
6.64399184e-07
4.80518171e-10
6.64344778e-07
4.71476264e-10
6.64291604e-07
4.62112699e-10
6.64239669e-07
4.52461584e-10
6.64188974e-07
4.42552124e-10
6.64139524e-07
4.3240781e-10
6.64091317e-07
4.22047713e-10
6.64044354e-07
4.11483057e-10
6.63998633e-07
4.00729398e-10
6.63954156e-07
3.89746496e-10
6.63910913e-07
3.78689083e-10
6.63868989e-07
3.6681923e-10
6.63828341e-07
3.56955896e-10
3.3690476e-10
6.66701082e-07
-2.03037349e-10
6.66820897e-07
-6.75619312e-10
6.67036787e-07
-1.19191112e-09
6.67348144e-07
-1.68192434e-09
6.67736013e-07
-2.04430629e-09
6.68165062e-07
-2.19425303e-09
6.68591359e-07
-2.0941955e-09
6.68971268e-07
-1.75596616e-09
6.69268576e-07
-1.22829948e-09
6.69460021e-07
-5.83305728e-10
6.69539651e-07
9.53263697e-11
6.69512749e-07
7.3339059e-10
6.69394599e-07
1.27106203e-09
6.69207253e-07
1.66900907e-09
6.68976201e-07
1.90843208e-09
6.68727577e-07
1.98805445e-09
6.68486108e-07
1.91950075e-09
6.6827388e-07
1.72252542e-09
6.68109199e-07
1.42319713e-09
6.68004889e-07
1.05627769e-09
6.67965748e-07
6.69523276e-10
6.67985891e-07
3.24648266e-10
6.68048194e-07
9.03987131e-11
6.68125556e-07
2.97889389e-11
6.68185274e-07
1.81929222e-10
6.68188301e-07
5.57706927e-10
6.68099327e-07
1.12791986e-09
6.6789192e-07
1.83394333e-09
6.67552902e-07
2.59980972e-09
6.67083042e-07
3.34793524e-09
6.66495051e-07
4.01197143e-09
6.65810299e-07
4.5442556e-09
6.65055152e-07
4.91801218e-09
6.64257646e-07
5.1256482e-09
6.63444883e-07
5.17522145e-09
6.6264106e-07
5.08710282e-09
6.618658e-07
4.89203573e-09
6.61132468e-07
4.63054342e-09
6.60446446e-07
4.35243068e-09
6.59803709e-07
4.11453405e-09
6.59190238e-07
3.97525168e-09
6.58582873e-07
3.98566466e-09
6.57951979e-07
4.17881713e-09
6.5726593e-07
4.56024546e-09
6.56496713e-07
5.10335852e-09
6.55625381e-07
5.75231141e-09
6.54645812e-07
6.43272496e-09
6.53565619e-07
7.06780358e-09
6.52403899e-07
7.59524079e-09
6.51186516e-07
7.97973334e-09
6.49940393e-07
8.21734224e-09
6.48688483e-07
8.33082693e-09
6.47446732e-07
8.35829988e-09
6.46223535e-07
8.33971212e-09
6.45021296e-07
8.30591108e-09
6.4383909e-07
8.27333739e-09
6.42675275e-07
8.24476613e-09
6.41529237e-07
8.21416661e-09
6.40401999e-07
8.17269679e-09
6.39295916e-07
8.11329104e-09
6.38213946e-07
8.03266261e-09
6.37158953e-07
7.93098083e-09
6.36133296e-07
7.81032025e-09
6.3513874e-07
7.67305042e-09
6.34176576e-07
7.52084946e-09
6.33247805e-07
7.35446492e-09
6.3235328e-07
7.17394935e-09
6.31493794e-07
6.97900288e-09
6.30670115e-07
6.76923381e-09
6.29883006e-07
6.54424344e-09
6.29133248e-07
6.30359204e-09
6.28421677e-07
6.04675711e-09
6.27749224e-07
5.77310347e-09
6.27116961e-07
5.48187947e-09
6.26526131e-07
5.17225415e-09
6.25978182e-07
4.84334889e-09
6.25474772e-07
4.49425698e-09
6.25017775e-07
4.12407325e-09
6.24609255e-07
3.73191282e-09
6.2425144e-07
3.31693354e-09
6.23946684e-07
2.87838727e-09
6.23697461e-07
2.41568162e-09
6.23506376e-07
1.92847575e-09
6.23375816e-07
1.41670935e-09
6.23308441e-07
8.80619802e-10
6.23310338e-07
3.20447344e-10
6.23386004e-07
-2.62388041e-10
6.23538424e-07
-8.66030567e-10
6.23772047e-07
-1.4882989e-09
6.24090983e-07
-2.12775191e-09
6.24499113e-07
-2.78244465e-09
6.24999678e-07
-3.44944252e-09
6.25595258e-07
-4.12498771e-09
6.26287683e-07
-4.80460251e-09
6.27077933e-07
-5.48303358e-09
6.27965993e-07
-6.15424606e-09
6.28950691e-07
-6.81152923e-09
6.30029557e-07
-7.44763108e-09
6.31198713e-07
-8.0549113e-09
6.32452804e-07
-8.62556009e-09
6.33784988e-07
-9.15184457e-09
6.35186973e-07
-9.62636154e-09
6.36649131e-07
-1.00423274e-08
6.38160662e-07
-1.03938362e-08
6.39709828e-07
-1.06761115e-08
6.41284223e-07
-1.08856839e-08
6.42871085e-07
-1.10205585e-08
6.44457626e-07
-1.10802602e-08
6.46031354e-07
-1.10658547e-08
6.47580389e-07
-1.09798687e-08
6.49093726e-07
-1.08261682e-08
6.50561464e-07
-1.06097572e-08
6.5197497e-07
-1.03365746e-08
6.5332699e-07
-1.00132533e-08
6.54611692e-07
-9.64685881e-09
6.55824666e-07
-9.24466878e-09
6.56962868e-07
-8.81395459e-09
6.58024535e-07
-8.36177781e-09
6.59009068e-07
-7.89484804e-09
6.59916898e-07
-7.41939926e-09
6.60749342e-07
-6.94108989e-09
6.61508458e-07
-6.46496046e-09
6.62196901e-07
-5.99539811e-09
6.62817792e-07
-5.53613981e-09
6.6337459e-07
-5.09027881e-09
6.63870988e-07
-4.66030655e-09
6.64310817e-07
-4.24815481e-09
6.64697968e-07
-3.8552393e-09
6.65036323e-07
-3.48252103e-09
6.65329703e-07
-3.13056056e-09
6.65581821e-07
-2.79956994e-09
6.65796256e-07
-2.48947493e-09
6.65976433e-07
-2.19996522e-09
6.66125603e-07
-1.93053604e-09
6.66246837e-07
-1.68053637e-09
6.66343024e-07
-1.44921206e-09
6.66416877e-07
-1.23574442e-09
6.66470936e-07
-1.03928164e-09
6.66507517e-07
-8.58932329e-10
6.66528649e-07
-6.93761459e-10
6.66536022e-07
-5.42785948e-10
6.6653106e-07
-4.05107666e-10
6.66515064e-07
-2.79950149e-10
6.66489285e-07
-1.66582586e-10
6.66454862e-07
-6.41984696e-11
6.66413286e-07
2.73485924e-11
6.66366378e-07
1.09386552e-10
6.66314494e-07
1.82727192e-10
6.66258352e-07
2.48039306e-10
6.66198564e-07
3.05905659e-10
6.66135698e-07
3.56897378e-10
6.66070261e-07
4.01598364e-10
6.66002705e-07
4.40555055e-10
6.65933437e-07
4.74279242e-10
6.6586283e-07
5.03252001e-10
6.6579122e-07
5.2791848e-10
6.65718911e-07
5.48687389e-10
6.65646176e-07
5.65932496e-10
6.6557326e-07
5.79993675e-10
6.65500382e-07
5.91180115e-10
6.65427739e-07
5.99772358e-10
6.65355501e-07
6.06025619e-10
6.65283819e-07
6.10171251e-10
6.65212824e-07
6.12420648e-10
6.65142628e-07
6.12965709e-10
6.65073326e-07
6.11981711e-10
6.65004998e-07
6.0962815e-10
6.64937712e-07
6.06050615e-10
6.64871523e-07
6.01380823e-10
6.64806477e-07
5.9573852e-10
6.64742612e-07
5.89232308e-10
6.64679957e-07
5.81959501e-10
6.64618537e-07
5.74007793e-10
6.64558369e-07
5.65455938e-10
6.64499468e-07
5.56373562e-10
6.64441844e-07
5.46822738e-10
6.64385503e-07
5.368586e-10
6.64330451e-07
5.26529077e-10
6.64276687e-07
5.15876335e-10
6.64224212e-07
5.04936602e-10
6.64173023e-07
4.93741032e-10
6.64123116e-07
4.82314851e-10
6.64074485e-07
4.70679023e-10
6.64027121e-07
4.58846421e-10
6.63981013e-07
4.4683726e-10
6.6393615e-07
4.34609648e-10
6.63892479e-07
4.22360651e-10
6.63850011e-07
4.09287066e-10
6.63808199e-07
3.98767974e-10
3.77433604e-10
6.66702578e-07
-2.39015639e-10
6.66825393e-07
-7.98433674e-10
6.67045361e-07
-1.41187976e-09
6.67360812e-07
-1.9973746e-09
6.67752283e-07
-2.43577778e-09
6.68184866e-07
-2.62683557e-09
6.68615819e-07
-2.52514866e-09
6.69002634e-07
-2.14278103e-09
6.69310263e-07
-1.535929e-09
6.69516464e-07
-7.89506885e-10
6.69610462e-07
1.32888804e-12
6.69592732e-07
7.51120341e-10
6.69481954e-07
1.3818399e-09
6.69300706e-07
1.85025733e-09
6.69074628e-07
2.13450999e-09
6.68829767e-07
2.23291504e-09
6.68590937e-07
2.15833105e-09
6.68380386e-07
1.93307621e-09
6.68216712e-07
1.5868716e-09
6.68113475e-07
1.15951507e-09
6.68077224e-07
7.05773578e-10
6.68104874e-07
2.96998661e-10
6.68181949e-07
1.33238735e-11
6.68275364e-07
-6.36267411e-11
6.68348694e-07
1.0859924e-10
6.68362695e-07
5.43706176e-10
6.6828359e-07
1.20702462e-09
6.68086753e-07
2.0307805e-09
6.67759553e-07
2.92700942e-09
6.67301933e-07
3.80555568e-09
6.66725399e-07
4.58850568e-09
6.66050261e-07
5.21939379e-09
6.65302143e-07
5.66612981e-09
6.645087e-07
5.9190915e-09
6.6369694e-07
5.98698078e-09
6.62891178e-07
5.89286481e-09
6.62111359e-07
5.6718547e-09
6.61371448e-07
5.37045507e-09
6.60677674e-07
5.04620431e-09
6.6002686e-07
4.76534802e-09
6.5940551e-07
4.5966018e-09
6.58790512e-07
4.60066249e-09
6.58151954e-07
4.81737503e-09
6.57457835e-07
5.25436498e-09
6.56679771e-07
5.88142215e-09
6.55798385e-07
6.6336979e-09
6.54806992e-07
7.42411755e-09
6.53712588e-07
8.16220743e-09
6.52533804e-07
8.77402495e-09
6.51296404e-07
9.21713369e-09
6.50027646e-07
9.48609956e-09
6.48751166e-07
9.60730744e-09
6.4748374e-07
9.62572568e-09
6.4623455e-07
9.5889018e-09
6.45006613e-07
9.53384858e-09
6.43799396e-07
9.48055405e-09
6.42611466e-07
9.43269667e-09
6.41442292e-07
9.3833402e-09
6.40292919e-07
9.32206994e-09
6.39165696e-07
9.24051423e-09
6.38063558e-07
9.13480038e-09
6.36989322e-07
9.00521735e-09
6.35945263e-07
8.85437925e-09
6.34933024e-07
8.68528927e-09
6.33953737e-07
8.50013647e-09
6.33008215e-07
8.29998675e-09
6.32097114e-07
8.08505044e-09
6.31221028e-07
7.85508854e-09
6.30380537e-07
7.60972518e-09
6.29576228e-07
7.34855202e-09
6.2880873e-07
7.07109011e-09
6.28078747e-07
6.7767404e-09
6.27387101e-07
6.46474893e-09
6.26734776e-07
6.13420471e-09
6.26122945e-07
5.78408567e-09
6.25552994e-07
5.41329929e-09
6.25026541e-07
5.02071018e-09
6.24545435e-07
4.6051789e-09
6.2411176e-07
4.16558814e-09
6.23727826e-07
3.70086786e-09
6.2339617e-07
3.21004326e-09
6.23119569e-07
2.69228248e-09
6.22901093e-07
2.14695188e-09
6.22744131e-07
1.57367145e-09
6.22652349e-07
9.72401586e-10
6.2262917e-07
3.43626413e-10
6.2267857e-07
-3.11788391e-10
6.22805497e-07
-9.9295765e-10
6.23015611e-07
-1.69841244e-09
6.23314001e-07
-2.42614242e-09
6.2370516e-07
-3.1736039e-09
6.24193179e-07
-3.93746129e-09
6.2478166e-07
-4.71346873e-09
6.25473492e-07
-5.49643415e-09
6.26270644e-07
-6.28018593e-09
6.27173978e-07
-7.05757964e-09
6.28183041e-07
-7.82059208e-09
6.29295875e-07
-8.56046519e-09
6.30508854e-07
-9.26789012e-09
6.31816569e-07
-9.9332757e-09
6.33211784e-07
-1.05470591e-08
6.34685456e-07
-1.11000343e-08
6.36226859e-07
-1.15837304e-08
6.37823779e-07
-1.19907563e-08
6.39462803e-07
-1.23151348e-08
6.41129664e-07
-1.25525456e-08
6.4280965e-07
-1.27005441e-08
6.44488014e-07
-1.27586245e-08
6.46150401e-07
-1.27282408e-08
6.47783227e-07
-1.2612695e-08
6.49374026e-07
-1.2416967e-08
6.50911711e-07
-1.21474423e-08
6.52386772e-07
-1.1811636e-08
6.53791391e-07
-1.1417872e-08
6.55119475e-07
-1.09749434e-08
6.56366633e-07
-1.04918267e-08
6.57530085e-07
-9.97740614e-09
6.58608532e-07
-9.440225e-09
6.59601999e-07
-8.88831459e-09
6.60511652e-07
-8.3290525e-09
6.61339616e-07
-7.76905428e-09
6.62088791e-07
-7.21413507e-09
6.62762675e-07
-6.66928246e-09
6.6336521e-07
-6.13867486e-09
6.63900635e-07
-5.62570408e-09
6.64373366e-07
-5.13303673e-09
6.64787886e-07
-4.66267477e-09
6.65148663e-07
-4.21601686e-09
6.65460081e-07
-3.79393911e-09
6.65726387e-07
-3.39686635e-09
6.65951654e-07
-3.02483684e-09
6.66139753e-07
-2.67757403e-09
6.66294333e-07
-2.3545455e-09
6.66418812e-07
-2.0550144e-09
6.66516368e-07
-1.77809302e-09
6.66589939e-07
-1.52278299e-09
6.66642205e-07
-1.28801023e-09
6.66675586e-07
-1.07266302e-09
6.66692279e-07
-8.75625316e-10
6.66694331e-07
-6.95812719e-10
6.66683752e-07
-5.32207177e-10
6.6666247e-07
-3.83826043e-10
6.66632161e-07
-2.4964073e-10
6.66594278e-07
-1.2870018e-10
6.66550086e-07
-2.00056612e-11
6.66499453e-07
7.79816895e-11
6.66443464e-07
1.6537489e-10
6.66382979e-07
2.43212614e-10
6.66318796e-07
3.12221769e-10
6.66251558e-07
3.73144497e-10
6.661818e-07
4.26654813e-10
6.6611001e-07
4.73388874e-10
6.6603662e-07
5.13944666e-10
6.6596202e-07
5.48879496e-10
6.65886559e-07
5.78712449e-10
6.65810554e-07
6.0392372e-10
6.65734286e-07
6.24955782e-10
6.65658003e-07
6.42214885e-10
6.65581925e-07
6.56071819e-10
6.6550624e-07
6.66864892e-10
6.65431111e-07
6.74901396e-10
6.65356676e-07
6.80460602e-10
6.65283053e-07
6.83794873e-10
6.6521034e-07
6.85133783e-10
6.65138621e-07
6.84684615e-10
6.65067967e-07
6.82635729e-10
6.64998437e-07
6.79157706e-10
6.64930082e-07
6.74405665e-10
6.64862943e-07
6.68519497e-10
6.64797056e-07
6.6162614e-10
6.64732447e-07
6.53840641e-10
6.64669141e-07
6.45266085e-10
6.64607153e-07
6.35995495e-10
6.64546496e-07
6.26112602e-10
6.64487178e-07
6.15691586e-10
6.64429202e-07
6.04798748e-10
6.64372568e-07
5.93493076e-10
6.64317271e-07
5.81825861e-10
6.64263305e-07
5.69842211e-10
6.64210661e-07
5.57580829e-10
6.64159327e-07
5.45074993e-10
6.6410929e-07
5.32351682e-10
6.64060536e-07
5.19433611e-10
6.64013047e-07
5.06335303e-10
6.63966804e-07
4.93080391e-10
6.63921788e-07
4.79625222e-10
6.63877965e-07
4.66183945e-10
6.63835388e-07
4.51864123e-10
6.63793956e-07
4.40200002e-10
4.16534055e-10
6.66703759e-07
-2.7607459e-10
6.66829695e-07
-9.24369579e-10
6.67055755e-07
-1.63794031e-09
6.67381186e-07
-2.32280556e-09
6.67786584e-07
-2.84117562e-09
6.68235922e-07
-3.07617321e-09
6.68684504e-07
-2.97373079e-09
6.69087908e-07
-2.54618503e-09
6.69408668e-07
-1.8566892e-09
6.69621496e-07
-1.00233474e-09
6.69715242e-07
-9.24166116e-11
6.69702607e-07
7.63754904e-10
6.6959331e-07
1.49113683e-09
6.69410233e-07
2.0333344e-09
6.69180285e-07
2.36445835e-09
6.68931552e-07
2.48164796e-09
6.68690895e-07
2.39898805e-09
6.68482473e-07