/*--------------------------------*- C++ -*----------------------------------*\
| =========                 |                                                 |
| \\      /  F ield         | OpenFOAM: The Open Source CFD Toolbox           |
|  \\    /   O peration     | Version:  v2012                                 |
|   \\  /    A nd           | Website:  www.openfoam.com                      |
|    \\/     M anipulation  |                                                 |
\*---------------------------------------------------------------------------*/
FoamFile
{
    version     2.0;
    format      ascii;
    class       surfaceScalarField;
    location    "2.84";
    object      phiHbyA;
}
// * * * * * * * * * * * * * * * * * * * * * * * * * * * * * * * * * * * * * //

dimensions      [0 3 -1 0 0 0 0];
oriented        oriented;


internalField   nonuniform List<scalar> 
56481
(
6.66712731e-07
-9.74797511e-11
6.66842545e-07
-3.15378832e-10
6.67057675e-07
-5.49723286e-10
6.67349858e-07
-7.64843484e-10
6.67696907e-07
-9.11127955e-10
6.68065854e-07
-9.49296017e-10
6.6841925e-07
-8.64480416e-10
6.68721226e-07
-6.6596264e-10
6.68941272e-07
-3.79085018e-10
6.69062766e-07
-2.95976011e-11
6.69122423e-07
3.18602064e-10
6.69109574e-07
6.5232804e-10
6.69030568e-07
9.30853901e-10
6.68898912e-07
1.13343387e-09
6.68732284e-07
1.24932874e-09
6.68549124e-07
1.27798736e-09
6.68366748e-07
1.22669767e-09
6.68200332e-07
1.10763294e-09
6.68062105e-07
9.36532596e-10
6.67960297e-07
7.33535653e-10
6.67897616e-07
5.24955421e-10
6.67869388e-07
3.43468642e-10
6.67860292e-07
2.25212873e-10
6.67850154e-07
2.00540211e-10
6.67812559e-07
2.8895134e-10
6.67718013e-07
4.91559585e-10
6.67541538e-07
7.9062118e-10
6.67266599e-07
1.15432694e-09
6.6688678e-07
1.54346994e-09
6.66405438e-07
1.91888811e-09
6.65833834e-07
2.24742476e-09
6.65188466e-07
2.50532547e-09
6.64488385e-07
2.67925458e-09
6.6375303e-07
2.76566989e-09
6.63000769e-07
2.76944855e-09
6.62247912e-07
2.70251423e-09
6.61507815e-07
2.58284839e-09
6.6078973e-07
2.43380511e-09
6.60097337e-07
2.28322899e-09
6.59427286e-07
2.1616748e-09
6.5876844e-07
2.09920799e-09
6.58102634e-07
2.12083269e-09
6.57407349e-07
2.24137003e-09
6.56659925e-07
2.46125923e-09
6.55842157e-07
2.76491774e-09
6.54943935e-07
3.12277614e-09
6.53964966e-07
3.49697427e-09
6.52914248e-07
3.84938297e-09
6.51807585e-07
4.14966882e-09
6.50663959e-07
4.38097826e-09
6.49501786e-07
4.54160212e-09
6.48336034e-07
4.64239612e-09
6.47176819e-07
4.70122059e-09
6.46029558e-07
4.73657964e-09
6.44896283e-07
4.76262944e-09
6.43777406e-07
4.78686834e-09
6.42673262e-07
4.81058138e-09
6.41585006e-07
4.83108961e-09
6.40514799e-07
4.8444375e-09
6.39465491e-07
4.84740422e-09
6.38440127e-07
4.83835569e-09
6.37441538e-07
4.81708664e-09
6.3647213e-07
4.78414914e-09
6.35533868e-07
4.74017588e-09
6.34628369e-07
4.68548087e-09
6.33757015e-07
4.61998104e-09
6.32921041e-07
4.5433143e-09
6.32121578e-07
4.4549928e-09
6.31359673e-07
4.35452159e-09
6.3063631e-07
4.24143945e-09
6.29952424e-07
4.11530792e-09
6.2930894e-07
3.97570301e-09
6.28706806e-07
3.8222101e-09
6.28147035e-07
3.65442819e-09
6.27630753e-07
3.47199557e-09
6.27159256e-07
3.27460868e-09
6.26734115e-07
3.06202318e-09
6.26357405e-07
2.8340297e-09
6.26031925e-07
2.59028182e-09
6.25760232e-07
2.32997992e-09
6.25543973e-07
2.0518349e-09
6.25385532e-07
1.75510276e-09
6.25285646e-07
1.44103591e-09
6.252443e-07
1.10932616e-09
6.25259902e-07
7.60924672e-10
6.25327674e-07
3.99116327e-10
6.25435201e-07
3.24385515e-11
6.25622464e-07
-3.56508421e-10
6.25893222e-07
-7.39616601e-10
6.26246784e-07
-1.12893889e-09
6.2668251e-07
-1.52519255e-09
6.2719988e-07
-1.92640917e-09
6.27798649e-07
-2.33092355e-09
6.2847828e-07
-2.73649736e-09
6.29237689e-07
-3.14013096e-09
6.30075184e-07
-3.5384278e-09
6.3098835e-07
-3.92773722e-09
6.31973952e-07
-4.30418166e-09
6.33027899e-07
-4.66372665e-09
6.34145252e-07
-5.00229428e-09
6.35320256e-07
-5.31588022e-09
6.365464e-07
-5.60067194e-09
6.37816496e-07
-5.8531889e-09
6.39122773e-07
-6.07040159e-09
6.40456998e-07
-6.24984507e-09
6.41810601e-07
-6.38969127e-09
6.43174837e-07
-6.48882157e-09
6.44540942e-07
-6.54683833e-09
6.45900301e-07
-6.56407672e-09
6.47244615e-07
-6.54157136e-09
6.48566052e-07
-6.48101261e-09
6.49857373e-07
-6.38466434e-09
6.51112042e-07
-6.2552871e-09
6.52324301e-07
-6.09603921e-09
6.53489224e-07
-5.91036239e-09
6.54602736e-07
-5.70188583e-09
6.55661618e-07
-5.47432371e-09
6.56663479e-07
-5.23137216e-09
6.57606716e-07
-4.97663498e-09
6.58490465e-07
-4.71355222e-09
6.59314526e-07
-4.44533579e-09
6.60079301e-07
-4.17493504e-09
6.60785712e-07
-3.90500201e-09
6.61435128e-07
-3.63787817e-09
6.62029293e-07
-3.37558114e-09
6.62570254e-07
-3.11981388e-09
6.63060289e-07
-2.87197417e-09
6.63501853e-07
-2.63316517e-09
6.63897528e-07
-2.40421988e-09
6.64249981e-07
-2.18572469e-09
6.64561935e-07
-1.97804396e-09
6.64836126e-07
-1.78135284e-09
6.65075271e-07
-1.59566508e-09
6.65282058e-07
-1.4208578e-09
6.65459138e-07
-1.25670163e-09
6.65609114e-07
-1.1028892e-09
6.65734519e-07
-9.59065003e-10
6.65837802e-07
-8.24857446e-10
6.65921327e-07
-6.99901765e-10
6.65987354e-07
-5.83858904e-10
6.66037992e-07
-4.76433295e-10
6.66075107e-07
-3.77369328e-10
6.66100199e-07
-2.86435066e-10
6.66114316e-07
-2.0341453e-10
6.66118045e-07
-1.28035434e-10
6.6611158e-07
-5.97992586e-11
6.66094809e-07
2.32916729e-12
6.66072832e-07
5.72902836e-11
6.66045062e-07
1.07635088e-10
6.66011521e-07
1.52410679e-10
6.65972556e-07
1.92068705e-10
6.65928755e-07
2.27008436e-10
6.65880759e-07
2.57636449e-10
6.65829167e-07
2.84384199e-10
6.65774528e-07
3.07647715e-10
6.65717349e-07
3.27771621e-10
6.65658093e-07
3.45062295e-10
6.65597181e-07
3.59792683e-10
6.65534992e-07
3.72204391e-10
6.65471859e-07
3.8251153e-10
6.65408076e-07
3.90904213e-10
6.65343896e-07
3.97553038e-10
6.65279539e-07
4.02612138e-10
6.65215191e-07
4.06223266e-10
6.65151015e-07
4.08516917e-10
6.65087153e-07
4.0961446e-10
6.65023728e-07
4.09628552e-10
6.64960847e-07
4.08664059e-10
6.64898609e-07
4.06817648e-10
6.64837097e-07
4.04178606e-10
6.6477639e-07
4.00828933e-10
6.64716555e-07
3.96842784e-10
6.64657652e-07
3.92287215e-10
6.64599734e-07
3.87222381e-10
6.64542846e-07
3.81701301e-10
6.64487026e-07
3.7577102e-10
6.64432306e-07
3.69473299e-10
6.64378711e-07
3.6284482e-10
6.64326264e-07
3.55918237e-10
6.64274985e-07
3.48721686e-10
6.6422489e-07
3.41279604e-10
6.64175993e-07
3.33612466e-10
6.6412831e-07
3.25737569e-10
6.64081861e-07
3.17666382e-10
6.64036668e-07
3.09411203e-10
6.63992775e-07
3.00941878e-10
6.63950216e-07
2.92358234e-10
6.63909181e-07
2.83083954e-10
6.63869505e-07
2.75220123e-10
2.59036946e-10
6.66695654e-07
-1.27103222e-10
6.66810298e-07
-4.31131861e-10
6.6701926e-07
-7.60117244e-10
6.67320235e-07
-1.06730455e-09
6.67693377e-07
-1.28576147e-09
6.68103166e-07
-1.36061072e-09
6.68506652e-07
-1.26950844e-09
6.68862315e-07
-1.02314156e-09
6.69137548e-07
-6.55767444e-10
6.69322372e-07
-2.15350049e-10
6.69385834e-07
2.53718194e-10
6.69347408e-07
6.89733843e-10
6.69225226e-07
1.05220928e-09
6.69041374e-07
1.31668181e-09
6.68818997e-07
1.47126189e-09
6.68581203e-07
1.51544752e-09
6.68349792e-07
1.45785631e-09
6.68144148e-07
1.31308311e-09
6.67980437e-07
1.10009086e-09
6.67870234e-07
8.43623771e-10
6.67818122e-07
5.76991257e-10
6.67818984e-07
3.4257716e-10
6.67857138e-07
1.87080445e-10
6.67905815e-07
1.51990973e-10
6.67931829e-07
2.63203388e-10
6.67899608e-07
5.24186657e-10
6.67776867e-07
9.13926898e-10
6.67540392e-07
1.39153518e-09
6.67179339e-07
1.90543034e-09
6.66695756e-07
2.4035591e-09
6.66102734e-07
2.84172094e-09
6.65421125e-07
3.18840014e-09
6.64675911e-07
3.42613249e-09
6.63893035e-07
3.55041308e-09
6.63097063e-07
3.56749696e-09
6.62309563e-07
3.49230424e-09
6.61547812e-07
3.34710082e-09
6.60823453e-07
3.16087241e-09
6.60140972e-07
2.96861133e-09
6.59496321e-07
2.80940451e-09
6.58876272e-07
2.72249367e-09
6.58259178e-07
2.74130513e-09
6.57617529e-07
2.88651991e-09
6.56922244e-07
3.16015237e-09
6.56147965e-07
3.54289176e-09
6.55278134e-07
3.99636632e-09
6.54308398e-07
4.47051367e-09
6.53247241e-07
4.91436943e-09
6.521136e-07
5.28715033e-09
6.50932201e-07
5.56621579e-09
6.4972808e-07
5.74954432e-09
6.4852194e-07
5.85232839e-09
6.47327529e-07
5.89937786e-09
6.46151458e-07
5.91633515e-09
6.44994955e-07
5.92273634e-09
6.43856542e-07
5.92878829e-09
6.42734513e-07
5.93600458e-09
6.41628479e-07
5.94039111e-09
6.40539785e-07
5.93625982e-09
6.39471083e-07
5.91908496e-09
6.38425556e-07
5.88670386e-09
6.37406232e-07
5.8390684e-09
6.36415613e-07
5.77725766e-09
6.35455625e-07
5.70248373e-09
6.34527753e-07
5.6155024e-09
6.33633224e-07
5.51649103e-09
6.3277314e-07
5.40521435e-09
6.31948542e-07
5.28124432e-09
6.31160436e-07
5.1441253e-09
6.30409796e-07
4.99342734e-09
6.29697583e-07
4.8287254e-09
6.29024775e-07
4.64957848e-09
6.28392408e-07
4.45551463e-09
6.27801622e-07
4.2460305e-09
6.27253701e-07
4.02061715e-09
6.26750127e-07
3.7787765e-09
6.26292625e-07
3.52001898e-09
6.25883203e-07
3.24385331e-09
6.25524064e-07
2.94973697e-09
6.25217221e-07
2.63705737e-09
6.24963999e-07
2.30521174e-09
6.24765226e-07
1.95392808e-09
6.24622243e-07
1.58390904e-09
6.24536573e-07
1.19465178e-09
6.24511465e-07
7.8535498e-10
6.24553544e-07
3.55988841e-10
6.24675584e-07
-9.08094004e-11
6.24859253e-07
-5.41275929e-10
6.25121387e-07
-1.00289114e-09
6.25464466e-07
-1.47335346e-09
6.25891028e-07
-1.95319361e-09
6.26403159e-07
-2.44007742e-09
6.27001757e-07
-2.93118229e-09
6.27687013e-07
-3.42354199e-09
6.28458512e-07
-3.91355009e-09
6.29315059e-07
-4.39703021e-09
6.30254558e-07
-4.86942711e-09
6.31273942e-07
-5.32589041e-09
6.32369124e-07
-5.76136308e-09
6.3353498e-07
-6.17072635e-09
6.34765363e-07
-6.5489537e-09
6.36053162e-07
-6.89126148e-09
6.3739038e-07
-7.1932838e-09
6.38768254e-07
-7.4512234e-09
6.40177408e-07
-7.66199849e-09
6.41608024e-07
-7.82334095e-09
6.43050051e-07
-7.93389488e-09
6.44493412e-07
-7.9932379e-09
6.45928222e-07
-8.00189806e-09
6.47344996e-07
-7.96131e-09
6.48734838e-07
-7.87375319e-09
6.50089596e-07
-7.74223936e-09
6.51401995e-07
-7.57040427e-09
6.5266572e-07
-7.3623722e-09
6.53875474e-07
-7.12260281e-09
6.55026995e-07
-6.85576233e-09
6.56117042e-07
-6.5665894e-09
6.57143356e-07
-6.25976356e-09
6.58104598e-07
-5.93981106e-09
6.59000272e-07
-5.61101705e-09
6.59830638e-07
-5.27734863e-09
6.60596612e-07
-4.94241584e-09
6.61299673e-07
-4.60943383e-09
6.61941767e-07
-4.281212e-09
6.62525217e-07
-3.96014413e-09
6.63052635e-07
-3.6482257e-09
6.63526853e-07
-3.34707174e-09
6.63950849e-07
-3.0579352e-09
6.64327695e-07
-2.78173963e-09
6.64660499e-07
-2.5191104e-09
6.64952366e-07
-2.27040796e-09
6.65206367e-07
-2.03577278e-09
6.65425512e-07
-1.81515989e-09
6.65612729e-07
-1.60836122e-09
6.65770833e-07
-1.41503785e-09
6.65902519e-07
-1.23475981e-09
6.66010348e-07
-1.06704107e-09
6.66096734e-07
-9.11360202e-10
6.66163916e-07
-7.67177358e-10
6.6621393e-07
-6.33950072e-10
6.66248576e-07
-5.11149072e-10
6.66269428e-07
-3.9828933e-10
6.66277881e-07
-2.94960766e-10
6.66275268e-07
-2.00883622e-10
6.6626294e-07
-1.15798794e-10
6.66242337e-07
-3.92809565e-11
6.66214634e-07
2.98588452e-11
6.66179971e-07
9.19010906e-11
6.66139889e-07
1.4768933e-10
6.66095007e-07
1.97284762e-10
6.66045933e-07
2.4115537e-10
6.6599316e-07
2.7980699e-10
6.65937149e-07
3.13681635e-10
6.65878366e-07
3.43210895e-10
6.65817259e-07
3.6880551e-10
6.65754247e-07
3.90839902e-10
6.65689717e-07
4.09653722e-10
6.6562402e-07
4.25554183e-10
6.65557474e-07
4.38817154e-10
6.65490365e-07
4.49690477e-10
6.65422942e-07
4.5839679e-10
6.65355429e-07
4.65137391e-10
6.65288018e-07
4.7009451e-10
6.65220877e-07
4.73435193e-10
6.65154152e-07
4.75312189e-10
6.65087971e-07
4.75866389e-10
6.65022442e-07
4.75227447e-10
6.64957659e-07
4.73515053e-10
6.64893706e-07
4.70838677e-10
6.64830654e-07
4.67298728e-10
6.64768562e-07
4.62986901e-10
6.64707484e-07
4.57985786e-10
6.64647465e-07
4.52369955e-10
6.64588544e-07
4.46206365e-10
6.64530752e-07
4.39554167e-10
6.64474117e-07
4.32465998e-10
6.6441866e-07
4.24988592e-10
6.643644e-07
4.17162735e-10
6.64311349e-07
4.09024432e-10
6.64259521e-07
4.00604676e-10
6.64208923e-07
3.91930161e-10
6.64159564e-07
3.83022626e-10
6.64111452e-07
3.73899898e-10
6.64064595e-07
3.64572608e-10
6.64018998e-07
3.55054673e-10
6.63974678e-07
3.45309935e-10
6.63931593e-07
3.35481483e-10
6.63889812e-07
3.24923903e-10
6.63848649e-07
3.16329557e-10
2.98778526e-10
6.66705048e-07
-1.65103335e-10
6.66826435e-07
-5.52203622e-10
6.6703914e-07
-9.72369681e-10
6.67339371e-07
-1.36689496e-09
6.67707134e-07
-1.65277965e-09
6.6810887e-07
-1.76159947e-09
6.68504449e-07
-1.66437641e-09
6.68854624e-07
-1.37264271e-09
6.69127198e-07
-9.27701666e-10
6.69301164e-07
-3.88711358e-10
6.69377556e-07
1.77878263e-10
6.69358375e-07
7.09104009e-10
6.69255378e-07
1.15523989e-09
6.69088259e-07
1.48371459e-09
6.68880194e-07
1.67915837e-09
6.68654495e-07
1.74092975e-09
6.68432863e-07
1.67924921e-09
6.68234477e-07
1.51122374e-09
6.68075189e-07
1.25913923e-09
6.67966312e-07
9.52276569e-10
6.67912735e-07
6.30359686e-10
6.67910702e-07
3.44421299e-10
6.67945647e-07
1.51962007e-10
6.67991436e-07
1.06026674e-10
6.68014336e-07
2.40097159e-10
6.67979526e-07
5.58720465e-10
6.67856644e-07
1.03644761e-09
6.67624192e-07
1.62354163e-09
6.67271802e-07
2.25729423e-09
6.66800692e-07
2.87406477e-09
6.66222277e-07
3.41945112e-09
6.65555461e-07
3.85445277e-09
6.64823459e-07
4.15729065e-09
6.64050898e-07
4.32204775e-09
6.63261535e-07
4.35584838e-09
6.62476575e-07
4.27616223e-09
6.61713315e-07
4.10916401e-09
6.60983771e-07
3.88912336e-09
6.60293127e-07
3.65786959e-09
6.59638224e-07
3.46283646e-09
6.59006737e-07
3.35243716e-09
6.58377827e-07
3.36861143e-09
6.57724758e-07
3.53793546e-09
6.57019264e-07
3.86395455e-09
6.56236743e-07
4.32369488e-09
6.55361e-07
4.87037739e-09
6.54387326e-07
5.44244993e-09
6.53323109e-07
5.97685194e-09
6.52185771e-07
6.42275844e-09
6.50998629e-07
6.75163526e-09
6.49785862e-07
6.96060126e-09
6.4856805e-07
7.06844615e-09
6.47359479e-07
7.10627481e-09
6.46167682e-07
7.10648575e-09
6.4499487e-07
7.09393448e-09
6.43840358e-07
7.08172821e-09
6.42702915e-07
7.07192185e-09
6.41582323e-07
7.05950942e-09
6.40479886e-07
7.03727999e-09
6.39398119e-07
6.9994959e-09
6.38340062e-07
6.94346855e-09
6.37308635e-07
6.86926685e-09
6.36306275e-07
6.77845585e-09
6.35334857e-07
6.67280677e-09
6.3439581e-07
6.55351874e-09
6.33490293e-07
6.42104252e-09
6.32619323e-07
6.27528127e-09
6.31783854e-07
6.11587071e-09
6.30984805e-07
5.94239104e-09
6.3022307e-07
5.75443511e-09
6.29499544e-07
5.55158032e-09
6.28815146e-07
5.3333568e-09
6.28170868e-07
5.09922447e-09
6.2756781e-07
4.84857024e-09
6.27007218e-07
4.58073791e-09
6.26490519e-07
4.29505031e-09
6.26019342e-07
3.99081724e-09
6.25595511e-07
3.66734861e-09
6.25221001e-07
3.32395427e-09
6.24897849e-07
2.95995659e-09
6.24628109e-07
2.57473919e-09
6.24414039e-07
2.16782727e-09
6.24258813e-07
1.73901465e-09
6.24165403e-07
1.28803253e-09
6.24135496e-07
8.15405251e-10
6.24167071e-07
3.24804418e-10
6.24260971e-07
-1.83946632e-10
6.24430842e-07
-7.10654153e-10
6.24679958e-07
-1.25150741e-09
6.25012595e-07
-1.80540716e-09
6.25430712e-07
-2.37065439e-09
6.25936321e-07
-2.94496315e-09
6.26531167e-07
-3.52523511e-09
6.27216237e-07
-4.10774248e-09
6.27991723e-07
-4.68808631e-09
6.28856951e-07
-5.26122776e-09
6.2981025e-07
-5.82161647e-09
6.30848852e-07
-6.36330348e-09
6.31968816e-07
-6.88006113e-09
6.33164986e-07
-7.3655599e-09
6.34430999e-07
-7.81356222e-09
6.3575932e-07
-8.21811678e-09
6.37141338e-07
-8.57378314e-09
6.38567507e-07
-8.87582865e-09
6.40027529e-07
-9.12042069e-09
6.41510574e-07
-9.30475896e-09
6.43005527e-07
-9.42720426e-09
6.44501248e-07
-9.48730963e-09
6.45986834e-07
-9.48583975e-09
6.47451866e-07
-9.42471154e-09
6.48886627e-07
-9.30690778e-09
6.50282286e-07
-9.13632613e-09
6.51631042e-07
-8.9176311e-09
6.52926222e-07
-8.65607313e-09
6.54162329e-07
-8.35728819e-09
6.55335054e-07
-8.02712884e-09
6.56441247e-07
-7.6714925e-09
6.57478857e-07
-7.29615685e-09
6.58446852e-07
-6.90666332e-09
6.59345112e-07
-6.50821187e-09
6.60174323e-07
-6.10557203e-09
6.60935857e-07
-5.70304127e-09
6.61631662e-07
-5.30440697e-09
6.62264147e-07
-4.91294089e-09
6.62836079e-07
-4.5313951e-09
6.63350493e-07
-4.16202866e-09
6.63810597e-07
-3.80663454e-09
6.64219708e-07
-3.46656955e-09
6.64581185e-07
-3.14280265e-09
6.64898389e-07
-2.83595815e-09
6.65174638e-07
-2.54635523e-09
6.65413172e-07
-2.27405505e-09
6.6561712e-07
-2.01890318e-09
6.6578949e-07
-1.7805687e-09
6.65933158e-07
-1.55858111e-09
6.66050861e-07
-1.35237115e-09
6.66145176e-07
-1.16129443e-09
6.6621853e-07
-9.846761e-10
6.66273217e-07
-8.21846472e-10
6.6631143e-07
-6.72159367e-10
6.66335246e-07
-5.349721e-10
6.66346596e-07
-4.096518e-10
6.6634717e-07
-2.95544454e-10
6.66338258e-07
-1.91972729e-10
6.66320709e-07
-9.82433391e-11
6.66295303e-07
-1.38642928e-11
6.66262332e-07
6.28211853e-11
6.66223037e-07
1.3116936e-10
6.66178473e-07
1.92204776e-10
6.66129286e-07
2.46409643e-10
6.66076062e-07
2.94308265e-10
6.66019363e-07
3.3642491e-10
6.65959707e-07
3.73248833e-10
6.65897575e-07
4.05249616e-10
6.65833411e-07
4.32871646e-10
6.65767625e-07
4.56524694e-10
6.65700591e-07
4.76584436e-10
6.65632646e-07
4.93394313e-10
6.65564092e-07
5.07266234e-10
6.65495195e-07
5.18483251e-10
6.65426187e-07
5.27301397e-10
6.65357269e-07
5.33952799e-10
6.65288616e-07
5.38647247e-10
6.65220376e-07
5.41575996e-10
6.65152679e-07
5.42912518e-10
6.65085635e-07
5.42815358e-10
6.6501934e-07
5.41429083e-10
6.64953878e-07
5.38886078e-10
6.64889321e-07
5.3530661e-10
6.64825732e-07
5.30800494e-10
6.64763166e-07
5.25467782e-10
6.64701671e-07
5.19398544e-10
6.64641286e-07
5.12674265e-10
6.64582046e-07
5.0536837e-10
6.64523978e-07
4.97545985e-10
6.64467105e-07
4.89265308e-10
6.64411445e-07
4.80578132e-10
6.64357009e-07
4.715296e-10
6.64303808e-07
4.6215945e-10
6.64251848e-07
4.52501791e-10
6.64201131e-07
4.42585833e-10
6.64151659e-07
4.32435084e-10
6.64103434e-07
4.22068638e-10
6.64056454e-07
4.11497757e-10
6.64010718e-07
4.00738053e-10
6.63966231e-07
3.89749352e-10
6.63922972e-07
3.78686614e-10
6.63881055e-07
3.66812132e-10
6.63840309e-07
3.56946911e-10
3.36896875e-10
6.66700499e-07
-1.98755805e-10
6.66819501e-07
-6.71357057e-10
6.6703454e-07
-1.18768424e-09
6.67345143e-07
-1.67774765e-09
6.67732332e-07
-2.04019252e-09
6.68160714e-07
-2.19021472e-09
6.68586346e-07
-2.09024762e-09
6.68965612e-07
-1.75212586e-09
6.69262316e-07
-1.22458322e-09
6.69453167e-07
-5.79711698e-10
6.69532234e-07
9.89132581e-11
6.69504823e-07
7.36679079e-10
6.69386211e-07
1.27412143e-09
6.69198435e-07
1.67182152e-09
6.68966993e-07
1.91096861e-09
6.68718024e-07
1.99028933e-09
6.68476264e-07
1.92140815e-09
6.68263804e-07
1.72408027e-09
6.68098956e-07
1.42437518e-09
6.67994549e-07
1.05705426e-09
6.67955385e-07
6.69871245e-10
6.67975584e-07
3.24534653e-10
6.68038035e-07
8.97830706e-11
6.68115585e-07
2.86566991e-11
6.68175582e-07
1.8028371e-10
6.68178987e-07
5.55542262e-10
6.6809049e-07
1.12522583e-09
6.6788365e-07
1.83069659e-09
6.67545292e-07
2.59598991e-09
6.67076188e-07
3.34352791e-09
6.66489049e-07
4.0069662e-09
6.65805248e-07
4.5386459e-09
6.6505115e-07
4.91179562e-09
6.64254792e-07
5.11882712e-09
6.63443277e-07
5.16780335e-09
6.62640799e-07
5.07910075e-09
6.61866981e-07
4.88346844e-09
6.61135184e-07
4.62143491e-09
6.60450786e-07
4.34280955e-09
6.59809754e-07
4.1044333e-09
6.59198064e-07
3.96470931e-09
6.58592545e-07
3.97472419e-09
6.57963555e-07
4.16752706e-09
6.57279455e-07
4.54865796e-09
6.56512222e-07
5.09152833e-09
6.55642898e-07
5.74029524e-09
6.5466535e-07
6.42058132e-09
6.53587181e-07
7.05559269e-09
6.52427478e-07
7.58302424e-09
6.51212095e-07
7.96757347e-09
6.49967946e-07
8.20530129e-09
6.48717975e-07
8.31896625e-09
6.47478117e-07
8.34667917e-09
6.46256758e-07
8.32838876e-09
6.45056293e-07
8.29493936e-09
6.43875786e-07
8.26276794e-09
6.42713588e-07
8.23464524e-09
6.41569078e-07
8.2045357e-09
6.40443272e-07
8.1635919e-09
6.39338521e-07
8.10474246e-09
6.38257779e-07
8.02469461e-09
6.37203908e-07
7.92361148e-09
6.36179265e-07
7.80356146e-09
6.35185615e-07
7.66690803e-09
6.34224251e-07
7.51532347e-09
6.33296174e-07
7.34954983e-09
6.32402241e-07
7.1696346e-09
6.31543247e-07
6.97527336e-09
6.30719966e-07
6.76607043e-09
6.29933164e-07
6.54162379e-09
6.29183628e-07
6.30149108e-09
6.28472199e-07
6.04514789e-09
6.27799813e-07
5.77195785e-09
6.27167548e-07
5.48116885e-09
6.26576652e-07
5.17195023e-09
6.26028577e-07
4.84342436e-09
6.25524988e-07
4.49468621e-09
6.25067763e-07
4.12483288e-09
6.24658972e-07
3.73298223e-09
6.24300845e-07
3.31829501e-09
6.23995746e-07
2.88002574e-09
6.23746149e-07
2.41758415e-09
6.23554665e-07
1.93063135e-09
6.23423683e-07
1.41910846e-09
6.23355869e-07
8.83252284e-10
6.23357304e-07
3.23300253e-10
6.2343244e-07
-2.59329369e-10
6.23584334e-07
-8.62744006e-10
6.23817393e-07
-1.48478569e-09
6.24135724e-07
-2.12401116e-09
6.24543214e-07
-2.77847161e-09
6.25043101e-07
-3.44523151e-09
6.25637961e-07
-4.12053403e-09
6.26329623e-07
-4.79990257e-09
6.27119062e-07
-5.47808558e-09
6.28006263e-07
-6.14905093e-09
6.28990053e-07
-6.80609139e-09
6.30067962e-07
-7.4419593e-09
6.31236113e-07
-8.04901937e-09
6.32489157e-07
-8.61946731e-09
6.33820254e-07
-9.14557598e-09
6.35221118e-07
-9.61994785e-09
6.3668213e-07
-1.00358046e-08
6.38192498e-07
-1.03872448e-08
6.39740493e-07
-1.06694957e-08
6.41313721e-07
-1.08790899e-08
6.4289943e-07
-1.10140335e-08
6.44484842e-07
-1.10738506e-08
6.46057478e-07
-1.10596049e-08
6.47605462e-07
-1.09738193e-08
6.491178e-07
-1.08203555e-08
6.50584597e-07
-1.06042115e-08
6.51997224e-07
-1.03313203e-08
6.53348429e-07
-1.00083083e-08
6.54632384e-07
-9.64223463e-09
6.55844675e-07
-9.24037075e-09
6.5698226e-07
-8.80998241e-09
6.58043372e-07
-8.35812614e-09
6.59027408e-07
-7.89150725e-09
6.59934797e-07
-7.41635619e-09
6.60766849e-07
-6.93832867e-09
6.61525619e-07
-6.46246322e-09
6.62213758e-07
-5.9931457e-09
6.6283438e-07
-5.53411238e-09
6.63390941e-07
-5.08845639e-09
6.6388713e-07
-4.65866947e-09
6.64326773e-07
-4.24668403e-09
6.64713758e-07
-3.85391664e-09
6.65051964e-07
-3.4813294e-09
6.65345209e-07
-3.12948401e-09
6.65597203e-07
-2.79859378e-09
6.65811524e-07
-2.48858574e-09
6.65991593e-07
-2.19915081e-09
6.66140662e-07
-1.9297854e-09
6.662618e-07
-1.67983961e-09
6.66357894e-07
-1.44856033e-09
6.66431658e-07
-1.23512981e-09
6.66485629e-07
-1.0386971e-09
6.66522126e-07
-8.58371709e-10
6.66543176e-07
-6.93219704e-10
6.66550469e-07
-5.42259725e-10
6.6654543e-07
-4.04595802e-10
6.66529358e-07
-2.79452935e-10
6.66503504e-07
-1.66099857e-10
6.66469002e-07
-6.37270129e-11
6.66427351e-07
2.78175523e-11
6.66380365e-07
1.09848141e-10
6.66328409e-07
1.8318392e-10
6.66272194e-07
2.48489878e-10
6.66212334e-07
3.06348633e-10
6.66149395e-07
3.57332292e-10
6.66083886e-07
4.02024749e-10
6.66016257e-07
4.40972507e-10
6.65946918e-07
4.74687438e-10
6.6587624e-07
5.03650618e-10
6.65804561e-07
5.28307199e-10
6.65732182e-07
5.49065915e-10
6.65659379e-07
5.66300564e-10
6.65586397e-07
5.80351063e-10
6.65513455e-07
5.91526656e-10
6.65440748e-07
6.00107936e-10
6.65368448e-07
6.06350163e-10
6.65296706e-07
6.10484726e-10
6.65225653e-07
6.1272304e-10
6.651554e-07
6.13257013e-10
6.65086043e-07
6.12261925e-10
6.65017662e-07
6.09897266e-10
6.64950325e-07
6.06308618e-10
6.64884088e-07
6.0162769e-10
6.64818995e-07
5.95974222e-10
6.64755086e-07
5.89456813e-10
6.64692389e-07
5.82172779e-10
6.64630928e-07
5.74209815e-10
6.64570722e-07
5.65646686e-10
6.64511785e-07
5.56553027e-10
6.64454127e-07
5.46990926e-10
6.64397755e-07
5.37015528e-10
6.64342673e-07
5.26674779e-10
6.64288882e-07
5.1601086e-10
6.64236382e-07
5.05060013e-10
6.64185171e-07
4.93853412e-10
6.64135243e-07
4.82416301e-10
6.64086593e-07
4.70769668e-10
6.64039214e-07
4.58926413e-10
6.63993091e-07
4.4690678e-10
6.63948218e-07
4.34668909e-10
6.63904531e-07
4.22409815e-10
6.63862074e-07
4.09326125e-10
6.63820169e-07
3.98795529e-10
3.77446505e-10
6.6670197e-07
-2.33966865e-10
6.6682395e-07
-7.93398306e-10
6.67043048e-07
-1.4068745e-09
6.67357727e-07
-1.99241933e-09
6.67748501e-07
-2.43089643e-09
6.68180398e-07
-2.62205524e-09
6.68610663e-07
-2.52049863e-09
6.68996813e-07
-2.13829367e-09
6.69303841e-07
-1.53164566e-09
6.69509601e-07
-7.85505767e-10
6.69602649e-07
4.80112109e-12
6.69584502e-07
7.54570001e-10
6.69473239e-07
1.38505366e-09
6.69291522e-07
1.85317204e-09
6.69065019e-07
2.13709636e-09
6.6881978e-07
2.23514322e-09
6.68580626e-07
2.16017393e-09
6.68369811e-07
1.93450751e-09
6.68205937e-07
1.58786454e-09
6.68102566e-07
1.16004323e-09
6.68066249e-07
7.05813855e-10
6.68093901e-07
2.96537704e-10
6.68171104e-07
1.23492806e-11
6.68264713e-07
-6.51607173e-11
6.68338314e-07
1.0646958e-10
6.68352679e-07
5.40970884e-10
6.6827402e-07
1.20364111e-09
6.68077723e-07
2.02672814e-09
6.67751165e-07
2.92227744e-09
6.67294286e-07
3.80013112e-09
6.66718596e-07
4.58237693e-09
6.66044405e-07
5.21255384e-09
6.6529734e-07
5.65857678e-09
6.64505055e-07
5.91082894e-09
6.6369456e-07
5.97801807e-09
6.62890168e-07
5.88321743e-09
6.62111823e-07
5.66154447e-09
6.61373484e-07
5.35951062e-09
6.60681378e-07
5.03466131e-09
6.6003232e-07
4.75324826e-09
6.59412808e-07
4.58399126e-09
6.58799721e-07
4.58758972e-09
6.58163135e-07
4.80389099e-09
6.57471037e-07
5.24052434e-09
6.56695033e-07
5.86728464e-09
6.55815732e-07
6.61932876e-09
6.54826441e-07
7.40958674e-09
6.53734143e-07
8.14758815e-09
6.52557458e-07
8.75939223e-09
6.5132214e-07
9.20256326e-09
6.50055438e-07
9.47166689e-09
6.48780975e-07
9.59308682e-09
6.47515519e-07
9.61178924e-09
6.46268239e-07
9.57531864e-09
6.45042142e-07
9.52068389e-09
6.43836686e-07
9.46786834e-09
6.42650428e-07
9.42054511e-09
6.4148283e-07
9.37177199e-09
6.40334929e-07
9.31112774e-09
6.3920907e-07
9.23023377e-09
6.38108184e-07
9.12521008e-09
6.37035086e-07
8.99633822e-09
6.35992049e-07
8.84622485e-09
6.34980716e-07
8.67786589e-09
6.34002221e-07
8.49344342e-09
6.3305738e-07
8.29401684e-09
6.3214685e-07
8.0797905e-09
6.31271232e-07
7.85052011e-09
6.30431108e-07
7.60582528e-09
6.29627074e-07
7.3452939e-09
6.28859762e-07
7.06844413e-09
6.28129883e-07
6.77467489e-09
6.27438267e-07
6.46323102e-09
6.26785902e-07
6.13320116e-09
6.26173968e-07
5.78356368e-09
6.25603859e-07
5.41322721e-09
6.25077196e-07
5.02105823e-09
6.24595835e-07
4.60591973e-09
6.24161864e-07
4.16669732e-09
6.23777599e-07
3.70232415e-09
6.23445582e-07
3.21182865e-09
6.23168593e-07
2.69438208e-09
6.22949705e-07
2.14935385e-09
6.22792307e-07
1.5763672e-09
6.22700069e-07
9.75385835e-10
6.22676409e-07
3.4689618e-10
6.2272531e-07
-3.08231384e-10
6.22851708e-07
-9.89115537e-10
6.23061258e-07
-1.69428393e-09
6.23359051e-07
-2.42172012e-09
6.23749577e-07
-3.16887801e-09
6.24236924e-07
-3.93242261e-09
6.24824691e-07
-4.708109e-09
6.2551576e-07
-5.49074631e-09
6.26312101e-07
-6.27416532e-09
6.27214569e-07
-7.05122528e-09
6.28222712e-07
-7.81390782e-09
6.29334571e-07
-8.55346066e-09
6.30546521e-07
-9.26058171e-09
6.31853155e-07
-9.92568724e-09
6.33247242e-07
-1.05392222e-08
6.34719746e-07
-1.10919883e-08
6.36259949e-07
-1.15755219e-08
6.37855647e-07
-1.19824381e-08
6.39493438e-07
-1.23067647e-08
6.41159071e-07
-1.25441847e-08
6.42837842e-07
-1.26922545e-08
6.44515019e-07
-1.27504677e-08
6.46176257e-07
-1.27202754e-08
6.47807986e-07
-1.26049749e-08
6.49397745e-07
-1.24095397e-08
6.50934457e-07
-1.21403482e-08
6.52408615e-07
-1.18049072e-08
6.53812404e-07
-1.14115321e-08
6.55139734e-07
-1.09690077e-08
6.5638621e-07
-1.04863024e-08
6.57549051e-07
-9.97229334e-09
6.58626956e-07
-9.43551713e-09
6.59619943e-07
-8.8839997e-09
6.60529176e-07
-8.32511423e-09
6.61356773e-07
-7.76547287e-09
6.62105627e-07
-7.21088829e-09
6.62779233e-07
-6.66634654e-09
6.63381526e-07
-6.13602524e-09
6.63916741e-07
-5.62331602e-09
6.64389287e-07
-5.13088591e-09
6.64803645e-07
-4.66073766e-09
6.6516428e-07
-4.21427105e-09
6.6547557e-07
-3.79236354e-09
6.6574176e-07
-3.39544148e-09
6.65966921e-07
-3.02354468e-09
6.66154921e-07
-2.67639819e-09
6.66309409e-07
-2.35347116e-09
6.66433799e-07
-2.05402829e-09
6.66531271e-07
-1.77718336e-09
6.6660476e-07
-1.52193948e-09
6.66656945e-07
-1.28722397e-09
6.66690248e-07
-1.0719266e-09
6.66706863e-07
-8.74932753e-10
6.66708837e-07
-6.95159074e-10
6.6669818e-07
-5.31587754e-10
6.66676821e-07
-3.83235978e-10
6.66646435e-07
-2.49075612e-10
6.66608482e-07
-1.28156922e-10
6.66564222e-07
-1.9476277e-11
6.66513508e-07
7.84915091e-11
6.66457445e-07
1.65869486e-10
6.66396885e-07
2.43692417e-10
6.66332628e-07
3.12688014e-10
6.66265316e-07
3.73597647e-10
6.66195485e-07
4.2709516e-10
6.66123622e-07
4.73816667e-10
6.6605016e-07
5.14360133e-10
6.65975488e-07
5.49282867e-10
6.65899956e-07
5.79103947e-10
6.65823881e-07
6.04303552e-10
6.65747543e-07
6.25324131e-10
6.65671193e-07
6.42571898e-10
6.65595048e-07
6.56417587e-10
6.65519298e-07
6.67199453e-10
6.65444105e-07
6.75224736e-10
6.65369608e-07
6.8077267e-10
6.65295925e-07
6.84095585e-10
6.65223153e-07
6.85423046e-10
6.65151378e-07
6.84962333e-10
6.65080669e-07
6.82901816e-10
6.65011087e-07
6.7941209e-10
6.64942681e-07
6.74648295e-10
6.64875494e-07
6.68750339e-10
6.64809559e-07
6.61845181e-10
6.64744906e-07
6.54047882e-10
6.64681557e-07
6.45461541e-10
6.6461953e-07
6.3617919e-10
6.64558835e-07
6.26284567e-10
6.64499481e-07
6.15851856e-10
6.64441471e-07
6.04947355e-10
6.64384805e-07
5.93630057e-10
6.64329479e-07
5.81951248e-10
6.64275486e-07
5.69956038e-10
6.64222817e-07
5.57683135e-10
6.6417146e-07
5.45165823e-10
6.64121403e-07
5.32431095e-10
6.6407263e-07
5.19501683e-10
6.64025125e-07
5.06392131e-10
6.63978868e-07
4.93126098e-10
6.63933843e-07
4.79659952e-10
6.63890004e-07
4.66207936e-10
6.63847436e-07
4.51877695e-10
6.63805906e-07
4.40204755e-10
4.16532156e-10
6.66703133e-07
-2.70232619e-10
6.66828212e-07
-9.18543984e-10
6.67053376e-07
-1.63215453e-09
6.67378004e-07
-2.317084e-09
6.67782669e-07
-2.83554139e-09
6.68231281e-07
-3.07064915e-09
6.68679132e-07
-2.96834083e-09
6.69081817e-07
-2.54095443e-09
6.69401872e-07
-1.8516431e-09
6.69613931e-07
-9.97488066e-10
6.69707399e-07
-8.77080355e-11
6.69694064e-07
7.68091927e-10
6.69584198e-07
1.49515697e-09
6.69400614e-07
2.03701471e-09
6.69170201e-07
2.36776174e-09
6.68921054e-07
2.4845448e-09
6.68680038e-07
2.40144882e-09
6.68471317e-07