/*--------------------------------*- C++ -*----------------------------------*\
| =========                 |                                                 |
| \\      /  F ield         | OpenFOAM: The Open Source CFD Toolbox           |
|  \\    /   O peration     | Version:  v2012                                 |
|   \\  /    A nd           | Website:  www.openfoam.com                      |
|    \\/     M anipulation  |                                                 |
\*---------------------------------------------------------------------------*/
FoamFile
{
    version     2.0;
    format      ascii;
    class       volScalarField;
    location    "2.84";
    object      rAU;
}
// * * * * * * * * * * * * * * * * * * * * * * * * * * * * * * * * * * * * * //

dimensions      [0 0 1 0 0 0 0];


internalField   nonuniform List<scalar> 
28416
(
0.000667829879
0.000667840119
0.000667835897
0.000667830918
0.000667825852
0.000667821413
0.000667818147
0.000667816376
0.00066781622
0.000667815554
0.000667807848
0.00066780114
0.000667796404
0.000667793876
0.000667793548
0.000667795214
0.000667798513
0.000667803012
0.000667808244
0.000667813689
0.000667818772
0.000667822879
0.000667825475
0.000667826147
0.000667824832
0.000667821882
0.000667817947
0.000667813855
0.000667810473
0.00066780855
0.000667808628
0.000667811002
0.000667815728
0.000667822656
0.000667831473
0.000667841737
0.000667852912
0.000667864398
0.000667875573
0.000667885853
0.000667894761
0.000667902015
0.000667907584
0.000667911726
0.000667914963
0.000667918002
0.000667921609
0.000667926453
0.000667932969
0.000667941288
0.000667951239
0.000667962438
0.00066797441
0.000667986719
0.000667999057
0.000668011265
0.000668023312
0.000668035237
0.000668047095
0.00066805892
0.000668070711
0.000668082442
0.000668094078
0.000668105587
0.000668116946
0.000668128143
0.000668139178
0.000668150046
0.000668160748
0.000668171287
0.00066818166
0.000668191865
0.000668201905
0.000668211772
0.000668221462
0.000668230966
0.000668240267
0.000668249338
0.000668258152
0.000668266695
0.000668274989
0.000668283021
0.000668290767
0.000668298246
0.00066830547
0.000668312459
0.000668319234
0.000668316945
0.000668310334
0.000668302682
0.000668293992
0.000668284297
0.000668273619
0.000668261985
0.000668249443
0.000668236038
0.000668221834
0.000668206908
0.00066819134
0.000668175224
0.000668158669
0.00066814178
0.000668124676
0.000668107472
0.000668090292
0.000668073246
0.000668056452
0.000668040011
0.000668024022
0.000668008571
0.000667993738
0.000667979583
0.000667966159
0.000667953506
0.00066794165
0.000667930603
0.000667920374
0.000667910953
0.000667902326
0.000667894476
0.000667887371
0.000667880981
0.000667875269
0.000667870202
0.000667865736
0.000667861831
0.000667858451
0.000667855554
0.000667853101
0.00066785106
0.000667849392
0.000667848063
0.000667847045
0.000667846305
0.000667845814
0.000667845549
0.000667845481
0.000667845583
0.000667845837
0.000667846214
0.000667846693
0.000667847253
0.000667847876
0.000667848545
0.000667849255
0.000667850001
0.00066785076
0.000667850126
0.000667849353
0.000667848775
0.000667848371
0.000667848129
0.000667848025
0.000667848045
0.000667848176
0.000667848402
0.000667848711
0.000667849096
0.000667849543
0.000667850046
0.000667850595
0.00066785119
0.000667851818
0.000667852479
0.000667853166
0.000667853876
0.000667854602
0.000667855346
0.000667856101
0.000667856863
0.000667857634
0.000667858408
0.000667859182
0.000667859958
0.000667860731
0.000667861499
0.000667862266
0.000667863025
0.000667863778
0.000667864522
0.000667865261
0.000667865989
0.000667866707
0.000667867417
0.000667868116
0.000667868802
0.000667869478
0.000667870149
0.00066787077
0.000667884847
0.000667819501
0.000667828945
0.000667823807
0.000667817836
0.000667811837
0.000667806677
0.000667803015
0.000667801223
0.000667801379
0.000667803308
0.000667799886
0.000667795318
0.000667792565
0.000667791655
0.000667792457
0.000667794711
0.000667798061
0.000667802115
0.00066780647
0.000667810703
0.000667814376
0.000667817062
0.0006678184
0.000667818224
0.000667816625
0.000667813973
0.000667810887
0.000667808108
0.000667806359
0.000667806213
0.000667808027
0.000667811922
0.000667817808
0.000667825438
0.000667834452
0.000667844431
0.000667854915
0.000667865437
0.00066787554
0.000667884819
0.000667892976
0.000667899876
0.000667905602
0.000667910468
0.000667914992
0.000667919811
0.000667925553
0.000667932706
0.00066794152
0.000667951967
0.000667963781
0.000667976543
0.00066798981
0.00066800321
0.000668016504
0.000668029593
0.00066804248
0.000668055216
0.000668067851
0.000668080406
0.000668092869
0.000668105206
0.000668117374
0.000668129339
0.000668141073
0.00066815256
0.000668163793
0.000668174761
0.000668185459
0.000668195883
0.000668206023
0.000668215874
0.000668225433
0.000668234687
0.000668243629
0.000668252251
0.000668260534
0.000668268461
0.000668276016
0.00066828318
0.000668289944
0.000668296305
0.000668302236
0.000668307726
0.000668312745
0.00066831722
0.000668319864
0.000668313549
0.000668306072
0.000668297584
0.000668288049
0.00066827747
0.000668265851
0.000668253217
0.000668239611
0.000668225082
0.000668209699
0.000668193544
0.000668176708
0.000668159298
0.000668141436
0.000668123244
0.000668104856
0.000668086408
0.00066806804
0.000668049881
0.000668032067
0.000668014714
0.000667997933
0.000667981821
0.000667966464
0.000667951927
0.000667938261
0.000667925507
0.000667913682
0.000667902792
0.000667892836
0.000667883794
0.000667875638
0.000667868339
0.000667861853
0.000667856135
0.000667851137
0.000667846814
0.00066784311
0.000667839977
0.000667837369
0.000667835235
0.00066783353
0.000667832215
0.000667831247
0.000667830587
0.000667830205
0.000667830065
0.000667830136
0.000667830395
0.000667830813
0.000667831366
0.000667832037
0.000667832801
0.000667833643
0.000667834546
0.000667835501
0.000667836489
0.000667837504
0.000667838531
0.000667839181
0.000667838865
0.000667838687
0.000667838634
0.000667838694
0.00066783886
0.000667839117
0.000667839454
0.000667839867
0.000667840341
0.000667840869
0.000667841446
0.000667842062
0.000667842712
0.00066784339
0.000667844094
0.000667844814
0.000667845553
0.000667846302
0.000667847061
0.000667847824
0.000667848594
0.000667849364
0.000667850132
0.000667850901
0.000667851664
0.000667852422
0.000667853175
0.00066785392
0.000667854654
0.000667855383
0.0006678561
0.000667856807
0.000667857502
0.000667858188
0.000667858861
0.000667859521
0.000667860172
0.000667860809
0.000667861432
0.000667862045
0.000667862649
0.000667863222
0.000667877193
0.000667819049
0.000667827421
0.000667821149
0.000667814127
0.000667807362
0.000667801876
0.000667798385
0.000667797213
0.000667798333
0.000667801433
0.000667800851
0.000667794955
0.000667791015
0.000667789175
0.000667789341
0.000667791255
0.000667794542
0.000667798784
0.000667803542
0.000667808343
0.000667812672
0.000667815986
0.000667817787
0.000667817765
0.000667815933
0.000667812639
0.000667808533
0.000667804439
0.000667801202
0.000667799541
0.000667799948
0.000667802654
0.000667807638
0.000667814683
0.000667823431
0.000667833433
0.000667844188
0.000667855161
0.000667865808
0.000667875617
0.000667884175
0.000667891238
0.000667896812
0.000667901186
0.000667904913
0.000667908721
0.000667913376
0.000667919519
0.000667927533
0.000667937475
0.000667949095
0.000667961936
0.000667975475
0.000667989251
0.000668002952
0.000668016438
0.0006680297
0.000668042798
0.000668055802
0.000668068747
0.000668081629
0.000668094413
0.000668107053
0.000668119508
0.000668131745
0.000668143747
0.000668155505
0.00066816701
0.000668178255
0.000668189239
0.000668199952
0.000668210389
0.00066822055
0.000668230423
0.000668240003
0.000668249285
0.000668258253
0.000668266894
0.000668275199
0.000668283146
0.000668290719
0.000668297902
0.000668304655
0.00066831095
0.000668316759
0.000668322068
0.000668323565
0.000668316375
0.000668308139
0.000668298834
0.000668288431
0.000668276936
0.00066826436
0.000668250725
0.000668236074
0.000668220461
0.000668203958
0.000668186657
0.000668168658
0.00066815008
0.00066813106
0.000668111736
0.00066809226
0.000668072785
0.000668053469
0.000668034458
0.000668015902
0.00066799793
0.000667980664
0.000667964205
0.000667948643
0.000667934041
0.000667920447
0.000667907894
0.000667896389
0.00066788593
0.000667876499
0.000667868064
0.000667860584
0.000667854013
0.000667848296
0.000667843374
0.000667839187
0.000667835679
0.000667832787
0.000667830451
0.00066782862
0.000667827238
0.000667826256
0.00066782563
0.000667825314
0.00066782527
0.000667825467
0.000667825866
0.00066782644
0.000667827166
0.000667828015
0.000667828966
0.000667830003
0.000667831101
0.000667832245
0.000667833417
0.000667834606
0.000667835795
0.000667836982
0.00066783816
0.00066783825
0.000667837914
0.000667837727
0.00066783767
0.000667837732
0.000667837903
0.000667838168
0.000667838516
0.00066783894
0.000667839427
0.00066783997
0.000667840562
0.000667841195
0.000667841862
0.000667842556
0.000667843277
0.000667844015
0.000667844772
0.000667845539
0.000667846315
0.000667847095
0.000667847883
0.00066784867
0.000667849456
0.000667850242
0.000667851022
0.000667851796
0.000667852567
0.000667853328
0.00066785408
0.000667854824
0.000667855558
0.000667856281
0.000667856992
0.000667857694
0.000667858382
0.000667859058
0.000667859724
0.000667860377
0.000667861017
0.000667861646
0.000667862267
0.00066786285
0.000667876831
0.000667818651
0.000667826086
0.00066781873
0.000667810578
0.000667802811
0.00066779663
0.000667792867
0.000667791889
0.000667793631
0.000667797679
0.000667799962
0.000667792935
0.000667788124
0.000667785727
0.000667785664
0.000667787647
0.000667791253
0.000667795997
0.00066780137
0.000667806818
0.000667811733
0.000667815474
0.000667817441
0.000667817222
0.000667814753
0.000667810358
0.00066780479
0.000667799031
0.000667794114
0.000667790921
0.000667790069
0.000667791858
0.00066779629
0.000667803125
0.000667811956
0.000667822268
0.000667833477
0.000667844961
0.000667856082
0.00066786623
0.000667874894
0.000667881754
0.000667886775
0.000667890261
0.000667892847
0.000667895401
0.000667898851
0.000667903995
0.000667911329
0.000667920958
0.000667932611
0.000667945759
0.000667959777
0.000667974108
0.00066798837
0.000668002386
0.000668016145
0.000668029724
0.000668043213
0.000668056667
0.000668070089
0.000668083444
0.000668096679
0.000668109749
0.000668122618
0.000668135265
0.000668147684
0.000668159865
0.000668171803
0.000668183499
0.000668194944
0.000668206135
0.000668217073
0.000668227748
0.000668238158
0.000668248298
0.000668258156
0.000668267721
0.000668276983
0.000668285921
0.000668294518
0.000668302754
0.0006683106
0.00066831803
0.00066832501
0.000668331468
0.000668332061
0.000668324198
0.000668315229
0.000668305123
0.000668293852
0.000668281411
0.0006682678
0.000668253044
0.000668237185
0.000668220278
0.000668202403
0.000668183659
0.000668164161
0.000668144044
0.000668123464
0.000668102581
0.000668081572
0.000668060613
0.00066803989
0.000668019573
0.000667999832
0.000667980817
0.000667962664
0.000667945486
0.000667929381
0.000667914411
0.000667900624
0.000667888045
0.000667876673
0.000667866491
0.000667857468
0.000667849556
0.000667842696
0.000667836827
0.000667831875
0.000667827768
0.00066782443
0.000667821792
0.000667819776
0.000667818316
0.000667817349
0.000667816812
0.000667816648
0.00066781681
0.000667817248
0.000667817919
0.00066781879
0.000667819824
0.000667820989
0.000667822264
0.000667823621
0.000667825037
0.000667826499
0.000667827986
0.000667829487
0.000667830992
0.000667832498
0.000667833992
0.000667835475
0.000667836598
0.000667836344
0.000667836097
0.000667835995
0.00066783602
0.000667836158
0.000667836401
0.000667836734
0.000667837145
0.000667837629
0.000667838173
0.000667838769
0.000667839413
0.000667840094
0.000667840808
0.000667841548
0.000667842313
0.000667843093
0.00066784389
0.000667844696
0.000667845509
0.000667846325
0.000667847146
0.000667847965
0.000667848782
0.000667849597
0.000667850405
0.000667851206
0.000667852002
0.000667852788
0.000667853564
0.000667854331
0.000667855087
0.000667855832
0.000667856564
0.000667857286
0.000667857995
0.000667858691
0.000667859376
0.000667860048
0.000667860707
0.000667861354
0.000667861996
0.0006678626
0.000667876624
0.000667818234
0.000667824645
0.000667816131
0.000667806829
0.000667798141
0.000667791449
0.00066778767
0.000667787154
0.000667789734
0.000667794834
0.000667800205
0.000667791788
0.00066778582
0.000667782543
0.000667781908
0.000667783636
0.000667787285
0.00066779234
0.000667798247
0.000667804383
0.00066781004
0.000667814432
0.000667816797
0.000667815831
0.000667813715
0.000667808505
0.000667801744
0.000667794501
0.000667787941
0.000667783103
0.000667780749
0.000667781292
0.000667784804
0.000667791074
0.000667799686
0.000667810093
0.000667821658
0.000667833681
0.000667845425
0.000667856162
0.000667865256
0.000667872274
0.000667877106
0.000667880039
0.000667881754
0.000667883227
0.000667885542
0.000667889661
0.000667896219
0.000667905404
0.000667916958
0.000667930302
0.000667944721
0.000667959562
0.000667974365
0.000667988907
0.000668003165
0.000668017226
0.000668031198
0.000668045151
0.000668059094
0.000668072992
0.000668086788
0.000668100428
0.000668113875
0.000668127105
0.000668140112
0.000668152889
0.000668165432
0.000668177745
0.00066818982
0.000668201658
0.00066821326
0.000668224623
0.000668235744
0.000668246623
0.000668257251
0.00066826762
0.000668277721
0.000668287538
0.000668297051
0.000668306241
0.000668315078
0.000668323526
0.000668331542
0.000668339085
0.000668339367
0.00066833091
0.000668321274
0.000668310417
0.00066829831
0.000668284943
0.000668270314
0.000668254444
0.000668237372
0.000668219157
0.000668199881
0.000668179655
0.000668158607
0.000668136888
0.000668114677
0.000668092159
0.000668069539
0.000668047025
0.000668024831
0.000668003155
0.000667982197
0.000667962128
0.000667943102
0.000667925244
0.000667908659
0.000667893411
0.000667879542
0.000667867068
0.000667855975
0.000667846228
0.000667837779
0.000667830558
0.000667824486
0.000667819483
0.000667815454
0.000667812309
0.000667809955
0.000667808309
0.00066780728
0.00066780679
0.000667806769
0.000667807144
0.000667807854
0.000667808848
0.000667810072
0.000667811482
0.000667813044
0.00066781472
0.000667816481
0.000667818306
0.00066782017
0.000667822054
0.000667823946
0.000667825832
0.000667827699
0.000667829535
0.000667831333
0.000667833079
0.000667834774
0.000667835165
0.000667834805
0.000667834606
0.000667834554
0.000667834629
0.000667834818
0.000667835111
0.000667835492
0.000667835951
0.000667836481
0.00066783707
0.000667837708
0.000667838393
0.000667839114
0.000667839865
0.00066784064
0.000667841438
0.00066784225
0.000667843077
0.000667843912
0.000667844753
0.000667845596
0.000667846443
0.000667847287
0.000667848128
0.000667848966
0.000667849798
0.00066785062
0.000667851437
0.000667852244
0.000667853039
0.000667853825
0.0006678546
0.000667855362
0.000667856111
0.00066785685
0.000667857576
0.000667858287
0.000667858989
0.000667859677
0.000667860351
0.000667861015
0.000667861672
0.000667862285
0.000667876319
0.000667817804
0.000667823173
0.000667813466
0.000667802946
0.000667793222
0.000667785867
0.00066778191
0.000667781718
0.000667785066
0.000667791267
0.00066779917
0.000667790355
0.000667783258
0.000667779154
0.000667778028
0.000667779588
0.000667783356
0.000667788762
0.000667795188
0.000667801937
0.000667808214
0.000667813139
0.000667814912
0.000667812842
0.000667812318
0.000667806167
0.000667798019
0.000667789119
0.000667780806
0.000667774288
0.000667770465
0.000667769844
0.000667772546
0.000667778364
0.00066778686
0.000667797432
0.000667809378
0.000667821915
0.000667834212
0.000667845437
0.000667854844
0.000667861902
0.00066786643
0.000667868702
0.000667869454
0.00066786978
0.000667870925
0.00066787402
0.000667879836
0.000667888637
0.000667900173
0.000667913808
0.000667928735
0.000667944198
0.000667959655
0.000667974836
0.000667989701
0.000668004347
0.000668018899
0.000668033442
0.000668047993
0.000668062517
0.000668076951
0.000668091237
0.000668105332
0.000668119213
0.000668132875
0.000668146312
0.000668159525
0.00066817252
0.000668185293
0.000668197849
0.000668210193
0.000668222325
0.000668234247
0.000668245963
0.000668257465
0.000668268749
0.000668279809
0.000668290627
0.000668301187
0.000668311468
0.00066832144
0.000668331068
0.000668340308
0.00066834911
0.000668349936
0.000668340949
0.000668330679
0.000668319086
0.000668306135
0.000668291808
0.000668276095
0.000668259008
0.000668240586
0.000668220885
0.000668199994
0.000668178034
0.000668155146
0.000668131506
0.000668107318
0.000668082803
0.000668058198
0.000668033752
0.000668009717
0.00066798633
0.000667963824
0.0006679424
0.000667922235
0.000667903471
0.000667886219
0.000667870547
0.000667856488
0.00066784405
0.000667833198
0.000667823878
0.00066781602
0.000667809527
0.000667804298
0.000667800226
0.000667797195
0.000667795092
0.000667793807
0.000667793237
0.00066779328
0.000667793844
0.000667794849
0.000667796214
0.000667797873
0.000667799769
0.000667801846
0.000667804059
0.000667806371
0.000667808747
0.000667811156
0.00066781358
0.000667815994
0.00066781838
0.000667820729
0.000667823026
0.000667825263
0.000667827435
0.000667829544
0.000667831582
0.000667833049
0.000667832846
0.000667832609
0.000667832526
0.000667832585
0.000667832765
0.000667833053
0.000667833439
0.000667833908
0.000667834449
0.000667835056
0.000667835717
0.000667836423
0.000667837172
0.000667837953
0.000667838762
0.000667839592
0.000667840442
0.000667841303
0.000667842177
0.000667843056
0.000667843939
0.000667844821
0.000667845705
0.000667846584
0.000667847458
0.000667848327
0.000667849188
0.000667850039
0.000667850883
0.000667851715
0.000667852535
0.000667853345
0.000667854143
0.000667854927
0.000667855698
0.000667856458
0.000667857203
0.000667857934
0.000667858655
0.000667859361
0.000667860053
0.000667860734
0.000667861409
0.000667862038
0.000667876108
0.00066781736
0.000667821654
0.000667810715
0.000667798951
0.000667788191
0.000667780207
0.00066777613
0.00066777633
0.000667780495
0.000667787793
0.00066779705
0.000667788957
0.000667780684
0.000667775683
0.00066777398
0.000667775292
0.000667779123
0.000667784869
0.000667791859
0.000667799322
0.00066780635
0.0006678119
0.00066781172
0.000667809035
0.000667809704
0.000667803841
0.000667794387
0.000667783881
0.00066777381
0.000667765545
0.000667760136
0.000667758206
0.000667759945
0.000667765175
0.000667773446
0.000667784122
0.000667796437
0.000667809526
0.00066782245
0.000667834252
0.000667844061
0.000667851236
0.000667855532
0.000667857209
0.000667857059
0.000667856291
0.000667856307
0.0006678584
0.000667863484
0.000667871905
0.000667883426
0.000667897359
0.000667912806
0.000667928912
0.00066794505
0.0006679609
0.000667976406
0.000667991669
0.000668006832
0.000668021993
0.000668037176
0.000668052342
0.000668067425
0.000668082358
0.000668097097
0.000668111616
0.000668125912
0.000668139983
0.000668153833
0.000668167472
0.000668180902
0.00066819413
0.000668207168
0.000668220018
0.000668232687
0.000668245184
0.000668257507
0.000668269652
0.000668281618
0.000668293391
0.000668304956
0.000668316296
0.000668327378
0.000668338172
0.000668348631
0.000668358708
0.000668360994
0.000668351516
0.000668340669
0.000668328397
0.000668314649
0.000668299395
0.000668282609
0.000668264296
0.000668244484
0.000668223229
0.00066820062
0.000668176786
0.000668151888
0.000668126125
0.000668099733
0.00066807297
0.000668046121
0.000668019481
0.000667993351
0.000667968018
0.000667943757
0.000667920806
0.000667899371
0.000667879615
0.000667861658
0.000667845567
0.000667831368
0.000667819049
0.000667808555
0.000667799805
0.000667792698
0.000667787108
0.000667782901
0.000667779943
0.000667778088
0.0006677772
0.000667777146
0.000667777805
0.000667779058
0.000667780801
0.000667782942
0.000667785395
0.000667788086
0.000667790956
0.000667793944
0.000667797007
0.000667800107
0.000667803209
0.000667806287
0.000667809323
0.000667812296
0.000667815195
0.000667818013
0.00066782074
0.000667823371
0.000667825901
0.000667828329
0.00066783063
0.000667830966
0.000667830667
0.000667830539
0.000667830563
0.000667830723
0.000667831001
0.000667831382
0.000667831857
0.000667832409
0.00066783303
0.000667833712
0.000667834443
0.000667835216
0.000667836027
0.000667836866
0.000667837729
0.00066783861
0.000667839508
0.000667840414
0.000667841329
0.000667842248
0.000667843168
0.000667844086
0.000667845003
0.000667845914
0.000667846818
0.000667847717
0.000667848605
0.000667849481
0.00066785035
0.000667851205
0.000667852047
0.000667852879
0.000667853696
0.0006678545
0.000667855289
0.000667856066
0.000667856829
0.000667857577
0.000667858313
0.000667859035
0.000667859743
0.000667860438
0.000667861129
0.000667861768
0.000667875852
0.000667816899
0.000667820081
0.000667807867
0.000667794811
0.000667782964
0.0006677743
0.000667770058
0.000667770615
0.000667775584
0.000667784001
0.00066779453
0.000667787586
0.00066777809
0.000667772163
0.000667769874
0.000667770941
0.000667774841
0.00066778092
0.00066778844
0.00066779655
0.000667804246
0.000667810396
0.000667807655
0.00066780443
0.000667805195
0.000667801235
0.00066779037
0.000667778154
0.000667766243
0.000667756178
0.000667749154
0.000667745902
0.000667746674
0.000667751312
0.000667759353
0.000667770115
0.00066778277
0.000667796369
0.000667809876
0.000667822225
0.000667832425
0.000667839727
0.000667843804
0.000667844895
0.000667843839
0.000667841961
0.000667840827
0.000667841907
0.00066784626
0.000667854321
0.000667865867
0.000667880159
0.000667896205
0.000667913045
0.000667929964
0.000667946585
0.000667962832
0.000667978807
0.000667994668
0.000668010525
0.000668026409
0.000668042278
0.000668058061
0.000668073687
0.000668089104
0.000668104289
0.00066811924
0.00066813396
0.000668148459
0.000668162752
0.000668176848
0.000668190759
0.000668204504
0.000668218093
0.000668231538
0.000668244852
0.000668258038
0.000668271098
0.000668284033
0.000668296832
0.000668309482
0.000668321967
0.00066833426
0.000668346327
0.000668358126
0.00066836961
0.000668374524
0.000668364652
0.000668353302
0.000668340403
0.000668325889
0.000668309709
0.000668291822
0.000668272215
0.000668250906
0.000668227941
0.000668203409
0.00066817745
0.00066815024
0.000668122007
0.000668093028
0.000668063609
0.000668034091
0.000668004831
0.000667976194
0.000667948525
0.000667922159
0.000667897379
0.000667874429
0.000667853495
0.000667834707
0.00066781813
0.000667803776
0.000667791612
0.000667781551
0.000667773479
0.000667767254
0.000667762714
0.000667759687
0.000667758003
0.000667757484
0.000667757965
0.000667759289
0.000667761313
0.000667763901
0.000667766936
0.000667770316
0.000667773947
0.00066777775
0.000667781663
0.000667785625
0.000667789591
0.000667793527
0.000667797398
0.000667801182
0.000667804863
0.000667808424
0.000667811854
0.000667815149
0.000667818302
0.000667821313
0.000667824182
0.000667826913
0.000667828413
0.000667828104
0.000667827979
0.000667828016
0.000667828195
0.000667828501
0.000667828916
0.000667829424
0.000667830018
0.000667830682
0.000667831406
0.000667832185
0.000667833006
0.000667833863
0.000667834753
0.000667835665
0.000667836597
0.000667837542
0.0006678385
0.000667839462
0.00066784043
0.000667841398
0.000667842364
0.000667843324
0.000667844282
0.000667845231
0.00066784617
0.000667847101
0.000667848021
0.000667848927
0.000667849823
0.000667850705
0.000667851573
0.000667852429
0.000667853269
0.000667854095
0.000667854905
0.000667855703
0.000667856486
0.000667857252
0.000667858007
0.000667858746
0.000667859471
0.000667860182
0.000667860889
0.000667861541
0.000667875656
0.000667816418
0.000667818448
0.000667804915
0.000667790527
0.000667777564
0.000667768205
0.000667763797
0.000667764721
0.000667770508
0.000667780051
0.000667791839
0.000667786201
0.000667775455
0.000667768571
0.000667765661
0.000667766455
0.000667770408
0.000667776822
0.000667784903
0.00066779372
0.000667802159
0.000667808815
0.000667803058
0.000667799273
0.000667799922
0.000667798594
0.000667786299
0.000667772343
0.000667758539
0.000667746598
0.00066773787
0.000667733201
0.000667732918
0.00066773689
0.000667744646
0.000667755467
0.00066776846
0.000667782588
0.000667796705
0.000667809617
0.000667820205
0.000667827612
0.000667831443
0.000667831927
0.000667829958
0.000667826981
0.00066782472
0.000667824817
0.000667828475
0.000667836216
0.000667847836
0.000667862543
0.000667879252
0.000667896895
0.000667914667
0.000667932134
0.000667949192
0.000667965949
0.000667982573
0.000667999186
0.000668015823
0.000668032441
0.00066804896
0.000668065302
0.000668081414
0.000668097269
0.000668112873
0.000668128231
0.000668143362
0.000668158286
0.000668173021
0.000668187588
0.000668202011
0.000668216307
0.000668230496
0.000668244596
0.000668258617
0.000668272565
0.000668286445
0.000668300252
0.000668313975
0.000668327603
0.000668341112
0.000668354473
0.000668367646
0.000668380587
0.000668389443
0.000668379259
0.000668367496
0.000668354059
0.000668338857
0.000668321812
0.000668302857
0.000668281954
0.0006682591
0.000668234328
0.00066820772
0.000668179421
0.000668149625
0.000668118593
0.000668086647
0.000668054154
0.000668021526
0.000667989198
0.000667957617
0.00066792721
0.000667898381
0.000667871476
0.000667846785
0.000667824521
0.000667804826
0.00066778776
0.000667773314
0.000667761423
0.00066775196
0.000667744763
0.000667739644
0.000667736391
0.000667734785
0.000667734614
0.000667735662
0.000667737732
0.000667740635
0.000667744209
0.000667748299
0.000667752773
0.00066775752
0.000667762439
0.000667767447
0.000667772481
0.000667777479
0.000667782398
0.000667787207
0.000667791875
0.000667796382
0.000667800719
0.000667804872
0.000667808839
0.000667812621
0.000667816216
0.000667819627
0.00066782286
0.000667825148
0.000667825343
0.000667825224
0.000667825277
0.000667825483
0.000667825821
0.000667826278
0.000667826833
0.000667827474
0.000667828191
0.00066782897
0.000667829802
0.00066783068
0.000667831595
0.000667832538
0.000667833508
0.000667834495
0.000667835496
0.000667836505
0.000667837523
0.000667838541
0.000667839561
0.000667840577
0.000667841588
0.000667842591
0.000667843589
0.000667844575
0.000667845549
0.000667846513
0.000667847463
0.000667848399
0.000667849322
0.00066785023
0.000667851121
0.000667851999
0.000667852861
0.000667853707
0.000667854536
0.000667855353
0.000667856153
0.000667856936
0.000667857707
0.000667858461
0.000667859201
0.000667859926
0.000667860648
0.00066786131
0.000667875441
0.000667815917
0.000667816749
0.000667801853
0.000667786092
0.000667771979
0.0006677619
0.000667757311
0.000667758593
0.000667765199
0.000667775875
0.000667788944
0.000667784841
0.000667772812
0.000667764946
0.000667761402
0.000667761919
0.000667765929
0.00066777269
0.000667781339
0.000667790855
0.000667800012
0.000667805637
0.00066779776
0.000667793337
0.000667793824
0.000667795755
0.000667781969
0.000667766205
0.000667750442
0.000667736563
0.000667726072
0.000667719933
0.000667718542
0.000667721801
0.000667729226
0.00066774006
0.000667753343
0.000667767954
0.000667782642
0.000667796094
0.000667807068
0.000667814594
0.000667818198
0.00066781809
0.000667815212
0.000667811128
0.00066780773
0.00066780684
0.000667809811
0.00066781726
0.000667829
0.000667844191
0.00066786165
0.000667880198
0.000667898933
0.000667917358
0.00066793534
0.000667952983
0.000667970465
0.000667987918
0.000668005381
0.000668022806
0.000668040107
0.000668057198
0.000668074023
0.000668090557
0.000668106809
0.000668122792
0.000668138534
0.000668154065
0.000668169413
0.000668184608
0.000668199686
0.000668214672
0.000668229594
0.00066824448
0.000668259343
0.000668274197
0.00066828905
0.000668303901
0.000668318743
0.000668333571
0.000668348363
0.000668363095
0.000668377734
0.000668392239
0.000668405419
0.000668396266
0.00066838422
0.00066837036
0.000668354563
0.000668336721
0.00066831673
0.000668294518
0.000668270052
0.00066824334
0.000668214451
0.000668183529
0.000668150788
0.000668116521
0.000668081109
0.000668044993
0.000668008674
0.00066797269
0.000667937595
0.000667903919
0.000667872161
0.000667842747
0.000667816023
0.000667792236
0.000667771539
0.00066775398
0.00066773952
0.000667728047
0.00066771938
0.000667713296
0.000667709544
0.000667707851
0.000667707942
0.000667709552
0.000667712421
0.000667716314
0.000667721012
0.000667726328
0.000667732088
0.000667738148
0.000667744387
0.0006677507
0.000667757002
0.000667763228
0.000667769322
0.000667775243
0.000667780964
0.00066778646
0.000667791716
0.000667796728
0.000667801489
0.000667805997
0.00066781026
0.000667814279
0.000667818062
0.000667821135
0.000667821898
0.000667821832
0.000667821953
0.000667822232
0.000667822648
0.000667823182
0.00066782382
0.000667824545
0.000667825343
0.000667826206
0.00066782712
0.000667828077
0.000667829071
0.000667830093
0.000667831135
0.000667832197
0.000667833269
0.000667834349
0.000667835431
0.000667836516
0.000667837597
0.000667838675
0.000667839745
0.000667840806
0.000667841856
0.000667842896
0.000667843922
0.000667844933
0.000667845933
0.000667846916
0.000667847881
0.000667848834
0.000667849769
0.000667850685
0.000667851588
0.000667852473
0.000667853341
0.000667854191
0.000667855028
0.000667855846
0.000667856647
0.000667857435
0.000667858206
0.000667858962
0.000667859702
0.000667860438
0.000667861112
0.00066787527
0.000667815393
0.000667814981
0.000667798676
0.000667781499
0.000667766205
0.000667755385
0.000667750604
0.000667752245
0.000667759673
0.000667771492
0.000667785848
0.000667783509
0.000667770171
0.000667761297
0.000667757098
0.000667757327
0.000667761393
0.000667768508
0.000667777741
0.00066778798
0.000667797884
0.000667800719
0.000667791802
0.00066778671
0.000667787008
0.00066779218
0.000667777545
0.000667759909
0.000667742109
0.000667726207
0.000667713864
0.000667706167
0.00066770359
0.000667706065
0.000667713105
0.000667723913
0.000667737464
0.000667752546
0.000667767793
0.000667781766
0.000667793095
0.000667800698
0.000667804032
0.000667803293
0.000667799482
0.000667794285
0.000667789759
0.000667787902
0.000667790223
0.000667797432
0.000667809361
0.00066782512
0.000667843426
0.000667862987
0.000667882801
0.000667902299
0.000667921318