/*--------------------------------*- C++ -*----------------------------------*\
| =========                 |                                                 |
| \\      /  F ield         | OpenFOAM: The Open Source CFD Toolbox           |
|  \\    /   O peration     | Version:  v2012                                 |
|   \\  /    A nd           | Website:  www.openfoam.com                      |
|    \\/     M anipulation  |                                                 |
\*---------------------------------------------------------------------------*/
FoamFile
{
    version     2.0;
    format      ascii;
    class       volVectorField;
    location    "2.99";
    object      H;
}
// * * * * * * * * * * * * * * * * * * * * * * * * * * * * * * * * * * * * * //

dimensions      [0 1 -2 0 0 0 0];


internalField   nonuniform List<vector> 
28416
(
(260.856731 -0.0138865213 0)
(260.865673 -0.0503552575 0)
(260.895119 -0.0991109028 0)
(260.948079 -0.162374831 0)
(261.028957 -0.23601604 0)
(261.139616 -0.309540784 0)
(261.278012 -0.368578565 0)
(261.437144 -0.398794705 0)
(261.605424 -0.390507612 0)
(261.768751 -0.341636849 0)
(261.91328 -0.257466389 0)
(262.027454 -0.148060121 0)
(262.102587 -0.0248884079 0)
(262.141771 0.102931527 0)
(262.152663 0.222697296 0)
(262.138245 0.320546568 0)
(262.101263 0.389497426 0)
(262.047832 0.42708197 0)
(261.984644 0.433997046 0)
(261.917846 0.413635519 0)
(261.852999 0.371260068 0)
(261.794469 0.313655808 0)
(261.744863 0.249593811 0)
(261.705729 0.190349645 0)
(261.677069 0.14802666 0)
(261.655228 0.133589659 0)
(261.632117 0.154967979 0)
(261.596407 0.215568597 0)
(261.536105 0.3133053 0)
(261.441 0.440558099 0)
(261.304105 0.585558867 0)
(261.122332 0.734730395 0)
(260.896526 0.875037219 0)
(260.630839 0.995740311 0)
(260.331687 1.08938069 0)
(260.006649 1.15208591 0)
(259.663569 1.18342403 0)
(259.309929 1.18604191 0)
(258.952422 1.16525281 0)
(258.596604 1.12863009 0)
(258.246462 1.08555422 0)
(257.903894 1.04658176 0)
(257.568178 1.02249666 0)
(257.235708 1.02299141 0)
(256.900235 1.05509618 0)
(256.553785 1.12166909 0)
(256.188137 1.22039748 0)
(255.796517 1.3437541 0)
(255.375049 1.48015174 0)
(254.923554 1.61617213 0)
(254.445484 1.73933609 0)
(253.947068 1.84062015 0)
(253.435935 1.91595714 0)
(252.919649 1.96629979 0)
(252.40452 1.99634359 0)
(251.894989 2.01247006 0)
(251.393609 2.02068278 0)
(250.901515 2.02519313 0)
(250.419098 2.02795621 0)
(249.946621 2.02904867 0)
(249.484606 2.02750202 0)
(249.033933 2.0221486 0)
(248.595734 2.0121735 0)
(248.171205 1.9972842 0)
(247.761433 1.97759236 0)
(247.367303 1.95338018 0)
(246.989494 1.92489937 0)
(246.628507 1.8922717 0)
(246.284723 1.855485 0)
(245.958436 1.81443927 0)
(245.649888 1.7689977 0)
(245.359274 1.71901838 0)
(245.086762 1.66436461 0)
(244.832505 1.60490378 0)
(244.596666 1.54050477 0)
(244.379452 1.47103941 0)
(244.181166 1.39638124 0)
(244.00236 1.31639907 0)
(243.843869 1.23084474 0)
(243.706169 1.13928236 0)
(243.589541 1.0414188 0)
(243.494545 0.936740905 0)
(243.421567 0.824614258 0)
(243.370704 0.704469124 0)
(243.341872 0.575834176 0)
(243.334582 0.438693796 0)
(243.348322 0.293881989 0)
(243.381397 0.142904289 0)
(243.432257 -0.00879273951 0)
(243.511331 -0.15649745 0)
(243.626928 -0.304813141 0)
(243.777799 -0.456609876 0)
(243.961618 -0.6116295 0)
(244.179136 -0.769390988 0)
(244.43123 -0.929530526 0)
(244.717813 -1.09125581 0)
(245.038565 -1.25339655 0)
(245.39314 -1.41460837 0)
(245.780914 -1.57342404 0)
(246.200875 -1.72825751 0)
(246.651635 -1.87743014 0)
(247.131417 -2.01920763 0)
(247.638046 -2.15184317 0)
(248.168957 -2.27363144 0)
(248.721222 -2.3829704 0)
(249.291593 -2.47842332 0)
(249.876542 -2.5587747 0)
(250.472323 -2.62307536 0)
(251.075042 -2.67067431 0)
(251.680727 -2.70123653 0)
(252.285415 -2.71474733 0)
(252.885232 -2.71150448 0)
(253.476471 -2.69209961 0)
(254.055668 -2.65739027 0)
(254.619658 -2.60846427 0)
(255.165626 -2.54659815 0)
(255.691136 -2.47321182 0)
(256.194157 -2.38982182 0)
(256.673064 -2.29799534 0)
(257.12663 -2.19930705 0)
(257.554017 -2.09530051 0)
(257.954742 -1.9874551 0)
(258.328655 -1.87715925 0)
(258.675897 -1.76568987 0)
(258.996868 -1.6541981 0)
(259.292186 -1.54370053 0)
(259.562652 -1.43507557 0)
(259.809212 -1.32906434 0)
(260.032926 -1.22627508 0)
(260.234937 -1.12719006 0)
(260.416444 -1.03217433 0)
(260.578681 -0.941485993 0)
(260.722895 -0.855287942 0)
(260.850332 -0.773660257 0)
(260.962222 -0.696611937 0)
(261.059769 -0.62409187 0)
(261.144143 -0.556000254 0)
(261.216478 -0.492200601 0)
(261.277864 -0.43253081 0)
(261.329347 -0.376813164 0)
(261.371924 -0.324865426 0)
(261.406547 -0.276514401 0)
(261.434108 -0.231610948 0)
(261.455436 -0.190042969 0)
(261.471258 -0.151738279 0)
(261.482181 -0.116645248 0)
(261.488672 -0.0846890429 0)
(261.491097 -0.0557311022 0)
(261.489724 -0.0295553108 0)
(261.484812 -0.00577473453 0)
(261.477507 0.0159926891 0)
(261.468259 0.0355361316 0)
(261.456978 0.0528658941 0)
(261.443696 0.068188429 0)
(261.428651 0.0816865405 0)
(261.412049 0.0935295243 0)
(261.394069 0.103891428 0)
(261.374905 0.112934188 0)
(261.354754 0.120799721 0)
(261.333794 0.127606914 0)
(261.312184 0.133456357 0)
(261.290064 0.138435037 0)
(261.267558 0.142619053 0)
(261.244771 0.14607578 0)
(261.221796 0.148865929 0)
(261.198713 0.15104526 0)
(261.175589 0.152665789 0)
(261.152483 0.153776449 0)
(261.129447 0.154423371 0)
(261.106524 0.154649919 0)
(261.083752 0.154496641 0)
(261.061167 0.154001199 0)
(261.038799 0.153198288 0)
(261.016673 0.152119578 0)
(260.994815 0.150793685 0)
(260.973245 0.149246179 0)
(260.951981 0.147499669 0)
(260.93104 0.145573985 0)
(260.910434 0.143486451 0)
(260.890177 0.141252215 0)
(260.870278 0.138884484 0)
(260.850747 0.136394554 0)
(260.831596 0.133792045 0)
(260.812825 0.131084254 0)
(260.794476 0.12827933 0)
(260.776452 0.125370346 0)
(260.759156 0.122399097 0)
(260.741329 0.119165126 0)
(260.727679 0.116439496 0)
(260.700589 0.110702538 0)
(260.858137 -0.022893536 0)
(260.861321 -0.087816138 0)
(260.882607 -0.176261428 0)
(260.928321 -0.290945019 0)
(261.005388 -0.424818685 0)
(261.117491 -0.560057 0)
(261.263877 -0.671895841 0)
(261.437793 -0.73536097 0)
(261.626457 -0.733161242 0)
(261.813346 -0.660746018 0)
(261.981657 -0.526281643 0)
(262.117528 -0.346908003 0)
(262.213033 -0.143688253 0)
(262.265726 0.0629232305 0)
(262.275312 0.251440021 0)
(262.245898 0.406177787 0)
(262.188049 0.517537912 0)
(262.111439 0.581646601 0)
(262.025184 0.599635144 0)
(261.937775 0.576322861 0)
(261.856677 0.519056745 0)
(261.788123 0.437469046 0)
(261.736902 0.34433761 0)
(261.705301 0.25625502 0)
(261.691683 0.192070355 0)
(261.690085 0.170247404 0)
(261.690647 0.205205525 0)
(261.680602 0.303673624 0)
(261.645835 0.462586125 0)
(261.573189 0.669399622 0)
(261.452812 0.904756475 0)
(261.279655 1.14652009 0)
(261.053843 1.37379464 0)
(260.780074 1.56987251 0)
(260.466371 1.72370045 0)
(260.122615 1.83002145 0)
(259.759228 1.88869444 0)
(259.386189 1.9037713 0)
(259.012358 1.88275615 0)
(258.644971 1.83618239 0)
(258.289138 1.77733305 0)
(257.94727 1.72170774 0)
(257.618528 1.68580994 0)
(257.298514 1.68504848 0)
(256.979484 1.73096772 0)
(256.651272 1.82847678 0)
(256.302919 1.97401498 0)
(255.924739 2.15549284 0)
(255.510338 2.35435826 0)
(255.058023 2.54941847 0)
(254.571145 2.72139068 0)
(254.057269 2.85684181 0)
(253.5264 2.95035645 0)
(252.988832 3.00438655 0)
(252.453261 3.02704372 0)
(251.925665 3.02877125 0)
(251.409139 3.01910859 0)
(250.904528 3.00454893 0)
(250.411475 2.98792477 0)
(249.929419 2.96911658 0)
(249.458258 2.94644984 0)
(248.998547 2.91806793 0)
(248.55135 2.88279772 0)
(248.117933 2.84038261 0)
(247.699473 2.79125164 0)
(247.296897 2.7361133 0)
(246.910854 2.6756152 0)
(246.541769 2.61017848 0)
(246.189925 2.53999114 0)
(245.855525 2.46508288 0)
(245.538732 2.38540568 0)
(245.239684 2.30088104 0)
(244.958504 2.2114113 0)
(244.695316 2.11687188 0)
(244.450262 2.01710131 0)
(244.223538 1.91189648 0)
(244.01542 1.80100455 0)
(243.826288 1.68410653 0)
(243.656595 1.56068945 0)
(243.506741 1.42998525 0)
(243.376869 1.29135472 0)
(243.267105 1.14408449 0)
(243.177739 0.987419538 0)
(243.109028 0.820958343 0)
(243.061511 0.644736035 0)
(243.036192 0.459259212 0)
(243.034272 0.265482906 0)
(243.059432 0.0643985448 0)
(243.114937 -0.143866208 0)
(243.197888 -0.354443531 0)
(243.309338 -0.568324478 0)
(243.453705 -0.787341693 0)
(243.632385 -1.01098492 0)
(243.846001 -1.23822038 0)
(244.095537 -1.46819085 0)
(244.381637 -1.69970679 0)
(244.704508 -1.93114408 0)
(245.064089 -2.16060535 0)
(245.459996 -2.38597432 0)
(245.891415 -2.60493198 0)
(246.357068 -2.81501347 0)
(246.855203 -3.01368262 0)
(247.383573 -3.19840726 0)
(247.939437 -3.36673885 0)
(248.519586 -3.51639629 0)
(249.120387 -3.64534802 0)
(249.737833 -3.75188771 0)
(250.367624 -3.83469905 0)
(251.005259 -3.89290549 0)
(251.646131 -3.9261018 0)
(252.285639 -3.9343653 0)
(252.919298 -3.91824646 0)
(253.542835 -3.87873992 0)
(254.152282 -3.81723847 0)
(254.744057 -3.73547357 0)
(255.315011 -3.63544662 0)
(255.862475 -3.51935538 0)
(256.384275 -3.38951982 0)
(256.878733 -3.24831101 0)
(257.344652 -3.09808604 0)
(257.781293 -2.94113123 0)
(258.188337 -2.77961492 0)
(258.565837 -2.61555039 0)
(258.914178 -2.45076887 0)
(259.234023 -2.28690225 0)
(259.526267 -2.12537416 0)
(259.791988 -1.96739852 0)
(260.032407 -1.81398415 0)
(260.248847 -1.66594423 0)
(260.442698 -1.52390912 0)
(260.61539 -1.38834206 0)
(260.768362 -1.25955624 0)
(260.903048 -1.13773265 0)
(261.020853 -1.0229381 0)
(261.123147 -0.915142968 0)
(261.211248 -0.814238116 0)
(261.28642 -0.72005137 0)
(261.349864 -0.632363634 0)
(261.402714 -0.550924396 0)
(261.446037 -0.475465764 0)
(261.480827 -0.405714707 0)
(261.507997 -0.34140315 0)
(261.528374 -0.282272202 0)
(261.5427 -0.228067632 0)
(261.551639 -0.178532014 0)
(261.555803 -0.133401186 0)
(261.555756 -0.0924013221 0)
(261.552018 -0.0552451599 0)
(261.545129 -0.0216404844 0)
(261.535614 0.00870744194 0)
(261.523751 0.0362149495 0)
(261.509628 0.0609068645 0)
(261.493707 0.0828377745 0)
(261.47622 0.102222872 0)
(261.457361 0.11927469 0)
(261.437325 0.134191707 0)
(261.416286 0.147178051 0)
(261.394399 0.158427776 0)
(261.371814 0.168115996 0)
(261.348662 0.176397356 0)
(261.325069 0.183408768 0)
(261.301149 0.189272306 0)
(261.277005 0.194097302 0)
(261.252726 0.197982011 0)
(261.228391 0.201015115 0)
(261.204068 0.203277029 0)
(261.179815 0.204840995 0)
(261.155684 0.20577393 0)
(261.131718 0.206137092 0)
(261.107955 0.205986601 0)
(261.084426 0.205373857 0)
(261.06116 0.204345882 0)
(261.038181 0.202945582 0)
(261.015509 0.201211979 0)
(260.993162 0.19918042 0)
(260.971155 0.196882771 0)
(260.949499 0.194347603 0)
(260.928207 0.191600399 0)
(260.907288 0.188663752 0)
(260.886749 0.185557541 0)
(260.866597 0.182298958 0)
(260.846836 0.178902296 0)
(260.827476 0.175379086 0)
(260.80851 0.171736842 0)
(260.789976 0.167983703 0)
(260.771762 0.164105759 0)
(260.754276 0.160157356 0)
(260.736139 0.155873093 0)
(260.722258 0.152279575 0)
(260.693943 0.144963273 0)
(260.858648 -0.0229032127 0)
(260.864775 -0.093654313 0)
(260.889877 -0.193480497 0)
(260.939141 -0.324499662 0)
(261.018854 -0.479089242 0)
(261.13219 -0.637673542 0)
(261.278082 -0.772045582 0)
(261.449945 -0.852955688 0)
(261.635667 -0.859503675 0)
(261.819672 -0.785265456 0)
(261.986061 -0.638590513 0)
(262.121435 -0.438709737 0)
(262.216384 -0.21059998 0)
(262.267687 0.0192369474 0)
(262.282319 0.228316031 0)
(262.263697 0.400303981 0)
(262.216455 0.524815751 0)
(262.148904 0.597716828 0)
(262.070234 0.62021594 0)
(261.988885 0.597339152 0)
(261.912368 0.536803834 0)
(261.846966 0.448855046 0)
(261.797246 0.347071457 0)
(261.765399 0.248894944 0)
(261.750478 0.175107481 0)
(261.747549 0.147094637 0)
(261.7472 0.182344393 0)
(261.736527 0.289845611 0)
(261.701529 0.467300104 0)
(261.629617 0.701271881 0)
(261.511447 0.97009034 0)
(261.342049 1.24836517 0)
(261.121163 1.51164129 0)
(260.852796 1.73997918 0)
(260.544182 1.91988543 0)
(260.204528 2.04467376 0)
(259.843802 2.11377008 0)
(259.471772 2.13162135 0)
(259.097283 2.10674869 0)
(258.727689 2.05117487 0)
(258.368309 1.98007745 0)
(258.021822 1.91122618 0)
(257.687691 1.86369431 0)
(257.361839 1.85555634 0)
(257.036848 1.90075017 0)
(256.702878 2.00581054 0)
(256.349261 2.16752868 0)
(255.966502 2.37255786 0)
(255.54821 2.5995037 0)
(255.092439 2.82323643 0)
(254.602084 3.02033049 0)
(254.084182 3.1740308 0)
(253.548313 3.27722273 0)
(253.004586 3.33256209 0)
(252.461786 3.34994007 0)
(251.926198 3.34238445 0)
(251.401328 3.32193831 0)
(250.88842 3.29684924 0)
(250.387414 3.27069644 0)
(249.89792 3.24324506 0)
(249.419884 3.21223122 0)
(248.953836 3.17515033 0)
(248.500785 3.13040231 0)
(248.061937 3.07761114 0)
(247.638428 3.01732747 0)
(247.231152 2.95049138 0)
(246.840728 2.87797662 0)
(246.467547 2.80036526 0)
(246.111847 2.71793539 0)
(245.773779 2.63075915 0)
(245.453448 2.5388097 0)
(245.150932 2.44202307 0)
(244.866293 2.34031069 0)
(244.599594 2.23354495 0)
(244.350919 2.12154076 0)
(244.120392 2.00404461 0)
(243.908201 1.88072976 0)
(243.71461 1.75119288 0)
(243.539951 1.61494557 0)
(243.384583 1.47143752 0)
(243.248862 1.32014991 0)
(243.133234 1.16078456 0)
(243.038468 0.993174969 0)
(242.965598 0.817337147 0)
(242.915603 0.633488292 0)
(242.889084 0.441633254 0)
(242.88611 0.241592547 0)
(242.903875 0.0335069808 0)
(242.946541 -0.182047288 0)
(243.019878 -0.405621184 0)
(243.126071 -0.635590209 0)
(243.265571 -0.871590275 0)
(243.439437 -1.11343956 0)
(243.648975 -1.3602847 0)
(243.895402 -1.61097 0)
(244.179628 -1.86407742 0)
(244.502215 -2.11780848 0)
(244.863411 -2.37002337 0)
(245.263089 -2.61830734 0)
(245.700654 -2.86000776 0)
(246.174985 -3.09228509 0)
(246.684413 -3.31218679 0)
(247.226683 -3.51673495 0)
(247.798956 -3.70302522 0)
(248.397821 -3.86833374 0)
(249.019344 -4.01022486 0)
(249.659132 -4.12665108 0)
(250.312433 -4.21603828 0)
(250.97424 -4.27734988 0)
(251.639423 -4.31012612 0)
(252.302857 -4.31449613 0)
(252.959559 -4.29116316 0)
(253.604805 -4.24136484 0)
(254.234239 -4.16681233 0)
(254.843966 -4.06961318 0)
(255.430609 -3.95218342 0)
(255.991352 -3.8171546 0)
(256.523957 -3.66728143 0)
(257.026758 -3.50535458 0)
(257.498637 -3.33412233 0)
(257.938988 -3.15622383 0)
(258.347666 -2.9741352 0)
(258.724932 -2.79012896 0)
(259.071394 -2.60624613 0)
(259.387948 -2.42428034 0)
(259.675723 -2.24577204 0)
(259.93602 -2.07201131 0)
(260.170273 -1.90404774 0)
(260.379999 -1.74270541 0)
(260.566761 -1.58860142 0)
(260.732139 -1.44216675 0)
(260.877705 -1.30366815 0)
(261.004997 -1.17323029 0)
(261.115513 -1.05085779 0)
(261.210688 -0.936455972 0)
(261.291891 -0.829850025 0)
(261.360421 -0.730802539 0)
(261.417502 -0.639028876 0)
(261.464279 -0.554210096 0)
(261.501823 -0.476003563 0)
(261.531129 -0.404050584 0)
(261.553129 -0.337983011 0)
(261.568698 -0.277434148 0)
(261.57866 -0.22205454 0)
(261.583753 -0.17152414 0)
(261.584603 -0.125552786 0)
(261.581704 -0.0838709256 0)
(261.575448 -0.0462159237 0)
(261.566106 -0.0123333474 0)
(261.55431 0.0180113621 0)
(261.540409 0.0451003551 0)
(261.5246 0.0693113795 0)
(261.50708 0.0908506894 0)
(261.488065 0.109913788 0)
(261.46777 0.126710038 0)
(261.446393 0.14143261 0)
(261.424106 0.154264252 0)
(261.40107 0.165377772 0)
(261.377434 0.174932937 0)
(261.353333 0.183078228 0)
(261.328886 0.189949604 0)
(261.304203 0.195669788 0)
(261.279378 0.200349294 0)
(261.254492 0.204087833 0)
(261.229618 0.20697563 0)
(261.204817 0.209094643 0)
(261.18014 0.210519619 0)
(261.155631 0.211318923 0)
(261.131331 0.211555172 0)
(261.10727 0.211285701 0)
(261.083478 0.210562922 0)
(261.059978 0.209434611 0)
(261.036791 0.207944142 0)
(261.013935 0.206130712 0)
(260.991426 0.204029546 0)
(260.969277 0.201672111 0)
(260.947497 0.199086331 0)
(260.926096 0.196296806 0)
(260.905082 0.193325029 0)
(260.884459 0.190189582 0)
(260.864233 0.186906293 0)
(260.844405 0.183488267 0)
(260.824981 0.179946204 0)
(260.805951 0.176287061 0)
(260.787352 0.172519185 0)
(260.769069 0.168629318 0)
(260.751502 0.16467572 0)
(260.733326 0.160400655 0)
(260.719384 0.156829027 0)
(260.691604 0.149646208 0)
(260.858251 -0.0284475403 0)
(260.862224 -0.11811474 0)
(260.884728 -0.246620711 0)
(260.932253 -0.416463519 0)
(261.012306 -0.617506387 0)
(261.129077 -0.824567417 0)
(261.282066 -1.0013796 0)
(261.464579 -1.11004801 0)
(261.663636 -1.12315965 0)
(261.862169 -1.0318951 0)
(262.042558 -0.846615595 0)
(262.189938 -0.591917419 0)
(262.294602 -0.299803774 0)
(262.353049 -0.00283863146 0)
(262.368608 0.270285555 0)
(262.343713 0.49486512 0)
(262.28783 0.657147975 0)
(262.21091 0.752433382 0)
(262.122963 0.782501738 0)
(262.033657 0.753840046 0)
(261.951681 0.676227885 0)
(261.884299 0.562588302 0)
(261.836771 0.43011816 0)
(261.811462 0.301386536 0)
(261.806851 0.203502102 0)
(261.816982 0.164235932 0)
(261.831661 0.206050637 0)
(261.837321 0.340329419 0)
(261.81871 0.564049663 0)
(261.761396 0.860011098 0)
(261.6543 1.20053306 0)
(261.49136 1.55327535 0)
(261.272017 1.88722745 0)
(261.00067 2.17727197 0)
(260.685447 2.40657324 0)
(260.336735 2.56690534 0)
(259.965793 2.65762573 0)
(259.583653 2.68419364 0)
(259.200286 2.65695822 0)
(258.823941 2.59051741 0)
(258.460508 2.50343399 0)
(258.112868 2.4176888 0)
(257.780314 2.35715292 0)
(257.458245 2.34467525 0)
(257.138398 2.39802764 0)
(256.809805 2.52566534 0)
(256.460501 2.72370683 0)
(256.079708 2.97544971 0)
(255.660008 3.25406895 0)
(255.198926 3.528098 0)
(254.699417 3.76826723 0)
(254.169114 3.95369291 0)
(253.618542 4.07554944 0)
(253.058871 4.1372101 0)
(252.499847 4.15108748 0)
(251.948475 4.13353475 0)
(251.408692 4.09970971 0)
(250.881906 4.06005499 0)
(250.368032 4.01918322 0)
(249.866562 3.97691933 0)
(249.377307 3.93051831 0)
(248.90069 3.87690459 0)
(248.43765 3.81411988 0)
(247.989352 3.74174069 0)
(247.556893 3.66051802 0)
(247.14112 3.57170667 0)
(246.742583 3.47648816 0)
(246.361585 3.37567834 0)
(245.998264 3.26970268 0)
(245.652659 3.15871311 0)
(245.324765 3.04271978 0)
(245.014547 2.9216685 0)
(244.721963 2.79545758 0)
(244.446978 2.66392122 0)
(244.189582 2.52680877 0)
(243.949815 2.38377536 0)
(243.727785 2.23438505 0)
(243.523685 2.07812115 0)
(243.337793 1.91439864 0)
(243.170464 1.74258604 0)
(243.022123 1.5620563 0)
(242.893288 1.37223096 0)
(242.784599 1.17256537 0)
(242.696746 0.962406514 0)
(242.63024 0.741046017 0)
(242.585608 0.507830664 0)
(242.564191 0.262688012 0)
(242.570709 0.00631521075 0)
(242.608976 -0.258457715 0)
(242.675382 -0.531213102 0)
(242.772794 -0.812793795 0)
(242.903979 -1.10299406 0)
(243.07086 -1.40097857 0)
(243.275117 -1.70555839 0)
(243.518313 -2.01523682 0)
(243.801786 -2.32815673 0)
(244.126547 -2.64203734 0)
(244.493237 -2.95418794 0)
(244.902059 -3.26155357 0)
(245.35268 -3.56076337 0)
(245.844155 -3.84820092 0)
(246.374873 -4.1201018 0)
(246.942511 -4.37266891 0)
(247.544018 -4.60220042 0)
(248.175635 -4.80522614 0)
(248.832943 -4.97864505 0)
(249.510946 -5.11985491 0)
(250.204188 -5.22686479 0)
(250.906893 -5.29838193 0)
(251.613125 -5.3338661 0)
(252.316955 -5.33354724 0)
(253.012634 -5.29840555 0)
(253.694741 -5.23011644 0)
(254.35832 -5.13096567 0)
(254.998987 -5.00374243 0)
(255.613005 -4.8516184 0)
(256.197325 -4.67802169 0)
(256.749599 -4.48651345 0)
(257.268166 -4.28067335 0)
(257.752011 -4.06399879 0)
(258.200713 -3.83982103 0)
(258.614378 -3.61123928 0)
(258.993564 -3.38107305 0)
(259.339206 -3.15183137 0)
(259.652543 -2.92569753 0)
(259.93505 -2.70452665 0)
(260.188366 -2.48985369 0)
(260.414247 -2.28290971 0)
(260.614511 -2.08464385 0)
(260.790998 -1.89574897 0)
(260.945539 -1.71668949 0)
(261.079924 -1.54773017 0)
(261.195885 -1.38896459 0)
(261.295082 -1.24034244 0)
(261.379087 -1.10169489 0)
(261.449383 -0.972757858 0)
(261.50736 -0.853193858 0)
(261.554311 -0.742611993 0)
(261.591438 -0.640585688 0)
(261.619853 -0.546669341 0)
(261.640578 -0.460414783 0)
(261.654536 -0.3813853 0)
(261.662532 -0.309162675 0)
(261.665254 -0.24334714 0)
(261.663294 -0.183553439 0)
(261.657202 -0.129404336 0)
(261.647506 -0.0805228508 0)
(261.634708 -0.0365203136 0)
(261.619398 0.00304155713 0)
(261.602259 0.038561003 0)
(261.583317 0.0703129536 0)
(261.56279 0.0985413277 0)
(261.54093 0.123522479 0)
(261.517972 0.145531582 0)
(261.494104 0.164828267 0)
(261.469493 0.181654514 0)
(261.444288 0.196237577 0)
(261.418619 0.208789597 0)
(261.392606 0.219505621 0)
(261.366355 0.228563981 0)
(261.339961 0.236127025 0)
(261.313508 0.242341894 0)
(261.287073 0.247341716 0)
(261.260721 0.251246887 0)
(261.234513 0.254166294 0)
(261.208496 0.256198466 0)
(261.182716 0.257432658 0)
(261.157208 0.257949813 0)
(261.132003 0.257823408 0)
(261.107127 0.257120174 0)
(261.082602 0.255900718 0)
(261.058445 0.254220056 0)
(261.034669 0.25212806 0)
(261.011286 0.249669841 0)
(260.988305 0.246886088 0)
(260.965732 0.243813358 0)
(260.943572 0.240484338 0)
(260.921828 0.23692808 0)
(260.900504 0.233170209 0)
(260.879599 0.229233084 0)
(260.859114 0.225135943 0)
(260.839049 0.220894875 0)
(260.819405 0.216523186 0)
(260.800168 0.212029811 0)
(260.781373 0.207425788 0)
(260.762893 0.202696687 0)
(260.745137 0.197915332 0)
(260.726687 0.192776392 0)
(260.712547 0.188506495 0)
(260.683673 0.179979978 0)
(260.858406 -0.0308184918 0)
(260.863158 -0.133225989 0)
(260.886966 -0.282838649 0)
(260.93647 -0.481796283 0)
(261.019068 -0.718408341 0)
(261.138633 -0.963937484 0)
(261.294389 -1.17654535 0)
(261.479562 -1.31192745 0)
(261.681349 -1.33734721 0)
(261.883043 -1.24129224 0)
(262.067371 -1.03461101 0)
(262.219615 -0.745283741 0)
(262.329831 -0.410706541 0)
(262.394079 -0.0702211925 0)
(262.415962 0.24065474 0)
(262.397658 0.497446946 0)
(262.347353 0.684745006 0)
(262.27503 0.796244296 0)
(262.190862 0.833534304 0)
(262.104672 0.803624396 0)
(262.025345 0.717243019 0)
(261.960377 0.588784615 0)
(261.915359 0.4376437 0)
(261.893158 0.289387582 0)
(261.892778 0.174854693 0)
(261.908337 0.126113953 0)
(261.928991 0.169778704 0)
(261.940402 0.320218285 0)
(261.927168 0.575145251 0)
(261.875186 0.915510136 0)
(261.773619 1.30968311 0)
(261.616304 1.72018085 0)
(261.402283 2.11067411 0)
(261.135441 2.45142401 0)
(260.823451 2.72222573 0)
(260.476392 2.91292606 0)
(260.105397 3.02229186 0)
(259.721524 3.05628025 0)
(259.334892 3.02659403 0)
(258.953999 2.94991313 0)
(258.585063 2.84757814 0)
(258.231324 2.7450121 0)
(257.892388 2.67003174 0)
(257.563859 2.6495399 0)
(257.237542 2.70482479 0)
(256.902431 2.84653261 0)
(256.546436 3.07094209 0)
(256.158588 3.3591333 0)
(255.731223 3.67991327 0)
(255.261574 3.99614314 0)
(254.752342 4.27285404 0)
(254.211022 4.48476451 0)
(253.648201 4.620898 0)
(253.075297 4.68497758 0)
(252.502444 4.69178065 0)
(251.937077 4.66104297 0)
(251.383517 4.61121235 0)
(250.84346 4.55509679 0)
(250.317005 4.49842109 0)
(249.803737 4.44103679 0)
(249.30351 4.37960864 0)
(248.816759 4.31036425 0)
(248.344422 4.23089288 0)
(247.887652 4.14068097 0)
(247.447519 4.04068156 0)
(247.02482 3.93248929 0)
(246.620032 3.81762228 0)
(246.23336 3.69715258 0)
(245.864828 3.57166862 0)
(245.51435 3.44141626 0)
(245.181791 3.30646069 0)
(244.866987 3.1667826 0)
(244.569766 3.02229933 0)
(244.289972 2.87284457 0)
(244.027478 2.71814323 0)
(243.782217 2.55780152 0)
(243.5542 2.3913145 0)
(243.34353 2.21808436 0)
(243.150413 2.03744297 0)
(242.975162 1.84867881 0)
(242.818199 1.65107068 0)
(242.68007 1.44392184 0)
(242.561467 1.22658065 0)
(242.463244 0.998463866 0)
(242.386398 0.759141843 0)
(242.33228 0.508559587 0)
(242.302538 0.246988054 0)
(242.29783 -0.0254604291 0)
(242.322624 -0.310932071 0)
(242.377156 -0.608382157 0)
(242.463662 -0.91693377 0)
(242.584515 -1.23614627 0)
(242.741946 -1.56533748 0)
(242.93809 -1.90337476 0)
(243.175003 -2.24866191 0)
(243.454543 -2.59912044 0)
(243.778254 -2.95215807 0)
(244.147284 -3.30467048 0)
(244.56229 -3.6530747 0)
(245.023324 -3.99336176 0)
(245.529727 -4.3211763 0)
(246.08004 -4.63192934 0)
(246.671939 -4.92094129 0)
(247.3022 -5.18360916 0)
(247.966704 -5.4155892 0)
(248.660495 -5.61298338 0)
(249.377875 -5.77251585 0)
(250.112551 -5.89168594 0)
(250.857818 -5.96888493 0)
(251.606763 -6.00346757 0)
(252.352487 -5.99577266 0)
(253.088322 -5.94709227 0)
(253.808024 -5.85959354 0)
(254.505945 -5.73620113 0)
(255.17716 -5.58045123 0)
(255.817553 -5.39632923 0)
(256.42386 -5.18810281 0)
(256.993675 -4.96016162 0)
(257.52541 -4.71687159 0)
(258.018245 -4.46244981 0)
(258.472044 -4.20086372 0)
(258.887264 -3.93575534 0)
(259.26486 -3.67038972 0)
(259.606186 -3.40762569 0)
(259.912906 -3.14990577 0)
(260.186907 -2.89926187 0)
(260.430224 -2.65733307 0)
(260.644975 -2.42539252 0)
(260.833306 -2.20438036 0)
(260.997349 -1.99494001 0)
(261.139184 -1.79745597 0)
(261.260814 -1.61209137 0)
(261.364146 -1.43882364 0)
(261.450982 -1.27747813 0)
(261.523006 -1.12775918 0)
(261.581783 -0.989277938 0)
(261.628757 -0.861576644 0)
(261.665256 -0.744149144 0)
(261.692487 -0.636458085 0)
(261.711543 -0.537948713 0)
(261.72341 -0.4480599 0)
(261.728982 -0.366233322 0)
(261.729089 -0.291920178 0)
(261.724515 -0.224584081 0)
(261.71597 -0.163702486 0)
(261.704073 -0.108770474 0)
(261.689335 -0.0593075139 0)
(261.672217 -0.0148727996 0)
(261.653294 0.0249240844 0)
(261.632589 0.0604647884 0)
(261.610257 0.0920820207 0)
(261.586616 0.12010256 0)
(261.561899 0.144839711 0)
(261.536304 0.166574816 0)
(261.510008 0.185569847 0)
(261.483172 0.202070977 0)
(261.455934 0.216307289 0)
(261.428417 0.228491353 0)
(261.400731 0.238819443 0)
(261.372974 0.247471922 0)
(261.34523 0.254613871 0)
(261.317572 0.26039575 0)
(261.290066 0.264954292 0)
(261.262764 0.268413581 0)
(261.235713 0.270886146 0)
(261.208952 0.272474007 0)
(261.182512 0.273269653 0)
(261.15642 0.27335692 0)
(261.130697 0.272811772 0)
(261.105363 0.271702972 0)
(261.08043 0.270092681 0)
(261.055912 0.268036991 0)
(261.031817 0.265586389 0)
(261.008153 0.262786186 0)
(260.984925 0.259676903 0)
(260.962137 0.256294633 0)
(260.939791 0.252671367 0)
(260.917887 0.248835313 0)
(260.896425 0.244811171 0)
(260.875403 0.240620382 0)
(260.854818 0.236281351 0)
(260.834666 0.231809515 0)
(260.814944 0.227217871 0)
(260.795636 0.222515344 0)
(260.77677 0.21771402 0)
(260.758222 0.212799952 0)
(260.740393 0.207852849 0)
(260.721913 0.202563904 0)
(260.707728 0.19819846 0)
(260.679397 0.189600366 0)
(260.858406 -0.0341831894 0)
(260.86337 -0.151503801 0)
(260.887886 -0.325570562 0)
(260.938891 -0.558502751 0)
(261.024165 -0.836604126 0)
(261.147988 -1.12640885 0)
(261.309829 -1.37885064 0)
(261.502787 -1.54162896 0)
(261.713517 -1.57582098 0)
(261.924535 -1.46736832 0)
(262.117786 -1.22851746 0)
(262.277918 -0.89178589 0)
(262.394385 -0.501001707 0)
(262.461888 -0.102265876 0)
(262.485371 0.263832526 0)
(262.469287 0.566654664 0)
(262.420169 0.787490867 0)
(262.348035 0.919182782 0)
(262.263942 0.96354742 0)
(262.178492 0.928593814 0)
(262.10123 0.826702864 0)
(262.04016 0.674578479 0)
(262.000981 0.494816342 0)
(261.986117 0.317437001 0)
(261.993953 0.178876966 0)
(262.018373 0.117028015 0)
(262.048921 0.163465771 0)
(262.071546 0.335214195 0)
(262.070126 0.629772818 0)
(262.029236 1.02514113 0)
(261.93689 1.48454687 0)
(261.786237 1.964202 0)
(261.576073 2.421513 0)
(261.310362 2.8215105 0)
(260.997088 3.14034717 0)
(260.646812 3.36592252 0)
(260.271257 3.49655486 0)
(259.882113 3.53894355 0)
(259.490089 3.50647397 0)
(259.104127 3.41834105 0)
(258.730675 3.29923089 0)
(258.372988 3.17870605 0)
(258.030531 3.08927528 0)
(257.698672 3.06253265 0)
(257.368911 3.12362776 0)
(257.029846 3.28533291 0)
(256.668912 3.54363396 0)
(256.274629 3.87671247 0)
(255.838891 4.24832071 0)
(255.358665 4.61513133 0)
(254.836613 4.93619196 0)
(254.280432 5.1817209 0)
(253.701092 5.33856721 0)
(253.110524 5.41077241 0)
(252.519416 5.4154069 0)
(251.93574 5.37549939 0)
(251.36427 5.31273074 0)
(250.807044 5.24229306 0)
(250.264384 5.17112846 0)
(249.735992 5.09928025 0)
(249.221766 5.02300158 0)
(248.722139 4.93797166 0)
(248.238023 4.8414225 0)
(247.770528 4.73279387 0)
(247.32066 4.61324974 0)
(246.889134 4.48471959 0)
(246.476317 4.34905311 0)
(246.082281 4.20757735 0)
(245.706893 4.06104301 0)
(245.349899 3.90978328 0)
(245.01098 3.75390129 0)
(244.68979 3.59338336 0)
(244.38598 3.42812606 0)
(244.099219 3.25791494 0)
(243.829223 3.082398 0)
(243.575782 2.90107718 0)
(243.338786 2.71332073 0)
(243.118243 2.51838788 0)
(242.914293 2.31545732 0)
(242.727218 2.103656 0)
(242.557451 1.88208818 0)
(242.405581 1.64986354 0)
(242.272368 1.40612085 0)
(242.15875 1.15004894 0)
(242.065841 0.880902592 0)
(241.994962 0.598059642 0)
(241.947615 0.300849707 0)
(241.925859 -0.0112815094 0)
(241.935201 -0.337569849 0)
(241.974949 -0.678305075 0)
(242.047418 -1.03321772 0)
(242.155159 -1.40177323 0)
(242.300866 -1.78308269 0)
(242.487221 -2.1757884 0)
(242.716833 -2.57802636 0)
(242.992152 -2.98738065 0)
(243.315356 -3.40082593 0)
(243.68822 -3.8147016 0)
(244.111985 -4.2247292 0)
(244.587196 -4.62606718 0)
(245.113562 -5.01340543 0)
(245.689825 -5.38110279 0)
(246.313659 -5.72336514 0)
(246.981614 -6.03445748 0)
(247.689105 -6.30893932 0)
(248.430475 -6.54190923 0)
(249.199111 -6.72924013 0)
(249.987632 -6.86778606 0)
(250.788119 -6.95554157 0)
(251.592387 -6.99173943 0)
(252.392274 -6.97687765 0)
(253.179924 -6.91267505 0)
(253.948038 -6.80196112 0)
(254.690088 -6.64851267 0)
(255.400478 -6.45685376 0)
(256.074638 -6.23203648 0)
(256.709064 -5.97941971 0)
(257.301308 -5.70446075 0)
(257.849921 -5.41253055 0)
(258.354358 -5.10875953 0)
(258.814872 -4.79791772 0)
(259.232388 -4.48432913 0)
(259.608375 -4.17181821 0)
(259.944721 -3.86368444 0)
(260.243626 -3.5627009 0)
(260.507491 -3.27113122 0)
(260.738834 -2.99076029 0)
(260.940217 -2.7229346 0)
(261.114186 -2.46860806 0)
(261.263218 -2.22839017 0)
(261.389698 -2.00259439 0)
(261.495886 -1.79128489 0)
(261.583899 -1.59432033 0)
(261.655712 -1.41139413 0)
(261.713142 -1.24207039 0)
(261.757857 -1.08581522 0)
(261.791382 -0.942024438 0)
(261.8151 -0.810047855 0)
(261.830267 -0.689210332 0)
(261.838022 -0.578829541 0)