/*--------------------------------*- C++ -*----------------------------------*\
| =========                 |                                                 |
| \\      /  F ield         | OpenFOAM: The Open Source CFD Toolbox           |
|  \\    /   O peration     | Version:  v2012                                 |
|   \\  /    A nd           | Website:  www.openfoam.com                      |
|    \\/     M anipulation  |                                                 |
\*---------------------------------------------------------------------------*/
FoamFile
{
    version     2.0;
    format      ascii;
    class       volVectorField;
    location    "2.09";
    object      H;
}
// * * * * * * * * * * * * * * * * * * * * * * * * * * * * * * * * * * * * * //

dimensions      [0 1 -2 0 0 0 0];


internalField   nonuniform List<vector> 
28416
(
(202.847869 0.0109646023 0)
(202.831978 0.0175888411 0)
(202.815541 0.00697284689 0)
(202.802637 -0.0186557767 0)
(202.798256 -0.0563750438 0)
(202.807034 -0.104789684 0)
(202.833426 -0.161879547 0)
(202.880425 -0.221938967 0)
(202.948556 -0.275397329 0)
(203.03465 -0.311018164 0)
(203.131832 -0.319244284 0)
(203.23065 -0.295112577 0)
(203.320864 -0.239513818 0)
(203.393311 -0.158543049 0)
(203.441466 -0.0615515738 0)
(203.463393 0.0413160025 0)
(203.460836 0.140356654 0)
(203.435284 0.226119674 0)
(203.390824 0.291776165 0)
(203.332206 0.333723862 0)
(203.264756 0.350980817 0)
(203.193668 0.344890916 0)
(203.123587 0.318859826 0)
(203.058553 0.278214407 0)
(203.002094 0.229850922 0)
(202.956755 0.181812536 0)
(202.92315 0.142834163 0)
(202.899131 0.121585391 0)
(202.879487 0.125447415 0)
(202.856448 0.15907371 0)
(202.82103 0.223079567 0)
(202.764746 0.313309657 0)
(202.681108 0.42127281 0)
(202.566709 0.535869784 0)
(202.421641 0.645920486 0)
(202.249103 0.74269621 0)
(202.054269 0.821649562 0)
(201.842821 0.882798995 0)
(201.619596 0.929728805 0)
(201.38776 0.967699198 0)
(201.148669 1.00166123 0)
(200.902317 1.03489732 0)
(200.64807 1.06862477 0)
(200.385345 1.10243287 0)
(200.114014 1.13511725 0)
(199.834486 1.16544383 0)
(199.547577 1.19256607 0)
(199.254311 1.21607415 0)
(198.955771 1.23582639 0)
(198.653032 1.25174663 0)
(198.347169 1.26370135 0)
(198.039287 1.27147693 0)
(197.730547 1.27481749 0)
(197.422169 1.27347356 0)
(197.115426 1.26723306 0)
(196.811626 1.25593026 0)
(196.512095 1.23944256 0)
(196.218165 1.21768468 0)
(195.931165 1.19060538 0)
(195.652406 1.15818653 0)
(195.383173 1.12044336 0)
(195.124707 1.07742495 0)
(194.878199 1.02921552 0)
(194.644772 0.975937131 0)
(194.42548 0.917754334 0)
(194.221301 0.854879963 0)
(194.033139 0.787579984 0)
(193.861835 0.716174654 0)
(193.708178 0.641033619 0)
(193.572912 0.562564616 0)
(193.456744 0.481197254 0)
(193.360344 0.397366807 0)
(193.284359 0.311482032 0)
(193.229566 0.223926449 0)
(193.196667 0.134840463 0)
(193.184623 0.0440490281 0)
(193.193753 -0.0469511048 0)
(193.225513 -0.137215472 0)
(193.279853 -0.227014474 0)
(193.355968 -0.316108007 0)
(193.453298 -0.403952439 0)
(193.571516 -0.490072236 0)
(193.710052 -0.574013454 0)
(193.868118 -0.655285221 0)
(194.044807 -0.733371345 0)
(194.239094 -0.807742398 0)
(194.44983 -0.877858657 0)
(194.675749 -0.94318031 0)
(194.915495 -1.0031886 0)
(195.167643 -1.05741149 0)
(195.430704 -1.10544689 0)
(195.70314 -1.14697897 0)
(195.983372 -1.1817862 0)
(196.269794 -1.20974239 0)
(196.560787 -1.23081347 0)
(196.854743 -1.2450526 0)
(197.150081 -1.25259472 0)
(197.445268 -1.25365099 0)
(197.738841 -1.24850241 0)
(198.029418 -1.23749244 0)
(198.315713 -1.22101827 0)
(198.596552 -1.1995212 0)
(198.870873 -1.17347614 0)
(199.137735 -1.14338098 0)
(199.396321 -1.109746 0)
(199.645938 -1.07308394 0)
(199.886016 -1.03390086 0)
(200.116101 -0.992688303 0)
(200.335857 -0.949916543 0)
(200.54505 -0.906029138 0)
(200.743548 -0.861438554 0)
(200.931309 -0.81652291 0)
(201.108376 -0.771623779 0)
(201.274861 -0.727045117 0)
(201.430945 -0.683053356 0)
(201.576865 -0.639878453 0)
(201.712903 -0.597715614 0)
(201.839383 -0.556727517 0)
(201.95666 -0.517046758 0)
(202.065114 -0.478778393 0)
(202.165142 -0.442002522 0)
(202.257154 -0.406776844 0)
(202.341565 -0.373139287 0)
(202.418796 -0.341110813 0)
(202.489263 -0.310698511 0)
(202.553381 -0.281899021 0)
(202.611551 -0.254701941 0)
(202.664165 -0.229092213 0)
(202.711592 -0.205050516 0)
(202.754178 -0.182551763 0)
(202.792248 -0.16156256 0)
(202.826103 -0.142038575 0)
(202.856025 -0.123923858 0)
(202.882283 -0.107152272 0)
(202.905137 -0.0916501229 0)
(202.924832 -0.077339094 0)
(202.941608 -0.0641384847 0)
(202.955694 -0.0519664085 0)
(202.967305 -0.0407400745 0)
(202.976654 -0.0303757653 0)
(202.983945 -0.0207885694 0)
(202.989376 -0.0118949214 0)
(202.993181 -0.003603678 0)
(202.995636 0.00413767003 0)
(202.996742 0.0114206336 0)
(202.996549 0.0184164046 0)
(202.995477 0.0250754462 0)
(202.993735 0.0312803731 0)
(202.991386 0.0369602006 0)
(202.988467 0.042078538 0)
(202.985006 0.0466225897 0)
(202.981019 0.0506051508 0)
(202.976522 0.0540584709 0)
(202.971539 0.0570256357 0)
(202.966101 0.0595541522 0)
(202.960245 0.0616914641 0)
(202.954015 0.0634819823 0)
(202.947453 0.064965501 0)
(202.940606 0.0661766486 0)
(202.933516 0.0671449571 0)
(202.926224 0.0678952459 0)
(202.918768 0.0684480902 0)
(202.911182 0.0688203878 0)
(202.903496 0.0690260051 0)
(202.895738 0.0690764868 0)
(202.887929 0.0689817844 0)
(202.880089 0.0687509346 0)
(202.872233 0.0683926174 0)
(202.864376 0.0679155478 0)
(202.85653 0.067328678 0)
(202.848703 0.0666412249 0)
(202.840905 0.0658625642 0)
(202.833146 0.0650020442 0)
(202.825431 0.0640687864 0)
(202.81777 0.0630715653 0)
(202.810169 0.0620185048 0)
(202.802635 0.0609168096 0)
(202.795176 0.0597727659 0)
(202.787796 0.0585918465 0)
(202.780503 0.0573787904 0)
(202.773299 0.0561376689 0)
(202.766191 0.0548719395 0)
(202.759183 0.0535846194 0)
(202.752274 0.0522780849 0)
(202.745481 0.050955767 0)
(202.738765 0.0496157825 0)
(202.732283 0.0482776308 0)
(202.725536 0.0468648031 0)
(202.720366 0.045686544 0)
(202.708079 0.0433727288 0)
(202.850368 0.0254820595 0)
(202.833206 0.046355565 0)
(202.811568 0.0346393421 0)
(202.791119 -0.00466938876 0)
(202.780091 -0.0671864659 0)
(202.783675 -0.149896864 0)
(202.807258 -0.248874414 0)
(202.855361 -0.354516066 0)
(202.92969 -0.450758377 0)
(203.027516 -0.518586137 0)
(203.141324 -0.541592674 0)
(203.260005 -0.510876749 0)
(203.371035 -0.427286832 0)
(203.462816 -0.300613559 0)
(203.526894 -0.146560682 0)
(203.559073 0.0167430777 0)
(203.559016 0.171408938 0)
(203.526979 0.304559141 0)
(203.469614 0.406932844 0)
(203.394565 0.473432315 0)
(203.309464 0.502927481 0)
(203.22167 0.497580759 0)
(203.137977 0.462156028 0)
(203.064233 0.403748243 0)
(203.004899 0.331750036 0)
(202.962624 0.257825903 0)
(202.937643 0.195602827 0)
(202.927137 0.159522135 0)
(202.924991 0.162564807 0)
(202.922184 0.213290318 0)
(202.907833 0.313207489 0)
(202.870913 0.45559086 0)
(202.802377 0.626396147 0)
(202.696986 0.807236695 0)
(202.55422 0.979656023 0)
(202.377991 1.12939977 0)
(202.175227 1.24930835 0)
(201.953816 1.33991214 0)
(201.720593 1.40767631 0)
(201.480022 1.46174598 0)
(201.233884 1.5105523 0)
(200.981879 1.55951677 0)
(200.722695 1.61043192 0)
(200.455041 1.66228619 0)
(200.178284 1.71276245 0)
(199.892595 1.75958746 0)
(199.598763 1.80125067 0)
(199.297885 1.83706441 0)
(198.991128 1.86684147 0)
(198.679624 1.89051962 0)
(198.364479 1.9079363 0)
(198.046819 1.91878627 0)
(197.727838 1.92268912 0)
(197.408808 1.91927612 0)
(197.091065 1.90824452 0)
(196.775994 1.88937249 0)
(196.465001 1.86251192 0)
(196.159501 1.82757778 0)
(195.860904 1.78454265 0)
(195.570601 1.73343664 0)
(195.289953 1.67434926 0)
(195.020283 1.60743034 0)
(194.762858 1.53288937 0)
(194.518888 1.45099318 0)
(194.289516 1.36206243 0)
(194.07582 1.26646689 0)
(193.878804 1.16461987 0)
(193.699405 1.05697249 0)
(193.538487 0.944008014 0)
(193.396843 0.826236361 0)
(193.275201 0.704187824 0)
(193.174203 0.578405228 0)
(193.094438 0.449435603 0)
(193.036384 0.317797543 0)
(193.000114 0.183829869 0)
(192.986253 0.0478759642 0)
(192.996547 -0.0887563809 0)
(193.030093 -0.224904735 0)
(193.086214 -0.360282066 0)
(193.164974 -0.494327697 0)
(193.266069 -0.626242816 0)
(193.389081 -0.755282248 0)
(193.533466 -0.880705003 0)
(193.698499 -1.00172247 0)
(193.883288 -1.11752593 0)
(194.086791 -1.22731461 0)
(194.307823 -1.33031066 0)
(194.545058 -1.42577541 0)
(194.797055 -1.513029 0)
(195.062271 -1.59146912 0)
(195.339074 -1.66058668 0)
(195.625761 -1.71997878 0)
(195.920575 -1.76935922 0)
(196.221728 -1.80856579 0)
(196.527416 -1.83756395 0)
(196.835854 -1.85644653 0)
(197.145293 -1.86542946 0)
(197.454045 -1.86484416 0)
(197.760506 -1.85512708 0)
(198.063176 -1.83680693 0)
(198.360668 -1.81049037 0)
(198.651727 -1.77684667 0)
(198.935235 -1.73659178 0)
(199.210215 -1.69047252 0)
(199.475835 -1.63925118 0)
(199.731407 -1.58369123 0)
(199.97638 -1.52454416 0)
(200.210341 -1.46253811 0)
(200.432999 -1.39836812 0)
(200.644182 -1.33268828 0)
(200.843824 -1.26610564 0)
(201.031959 -1.199176 0)
(201.208703 -1.13240117 0)
(201.374246 -1.06622773 0)
(201.528847 -1.00104722 0)
(201.672816 -0.937197261 0)
(201.806506 -0.874963745 0)
(201.93031 -0.814583679 0)
(202.044646 -0.756248651 0)
(202.149948 -0.700108582 0)
(202.246669 -0.646275799 0)
(202.335262 -0.594829192 0)
(202.416187 -0.545818431 0)
(202.489895 -0.499268061 0)
(202.556831 -0.455181244 0)
(202.617429 -0.413542778 0)
(202.672106 -0.374321431 0)
(202.721262 -0.337471932 0)
(202.76528 -0.302936891 0)
(202.804523 -0.270648638 0)
(202.839334 -0.240530529 0)
(202.870039 -0.212497106 0)
(202.896939 -0.186454642 0)
(202.920324 -0.162302375 0)
(202.940465 -0.139934139 0)
(202.957619 -0.11924038 0)
(202.972031 -0.100110107 0)
(202.983933 -0.0824324407 0)
(202.993547 -0.0660977058 0)
(203.001085 -0.05099883 0)
(203.006754 -0.0370332828 0)
(203.01076 -0.0241084961 0)
(203.013302 -0.0121486952 0)
(203.014606 -0.0011368224 0)
(203.01488 0.0088239678 0)
(203.013992 0.017981959 0)
(203.01203 0.0264643855 0)
(203.00918 0.0342918092 0)
(203.005596 0.0414612555 0)
(203.001385 0.0479722192 0)
(202.99663 0.0538352143 0)
(202.9914 0.0590690976 0)
(202.985746 0.0637007056 0)
(202.97971 0.0677646143 0)
(202.973326 0.0713000394 0)
(202.966631 0.0743478953 0)
(202.959656 0.0769488875 0)
(202.952436 0.079142268 0)
(202.945003 0.0809650246 0)
(202.937389 0.0824515191 0)
(202.929625 0.0836333469 0)
(202.921741 0.0845388935 0)
(202.913764 0.0851933217 0)
(202.905717 0.0856188917 0)
(202.897624 0.0858353555 0)
(202.889504 0.0858603599 0)
(202.881375 0.0857098361 0)
(202.873251 0.0853983459 0)
(202.865147 0.0849393712 0)
(202.857073 0.0843455306 0)
(202.84904 0.0836287231 0)
(202.841057 0.0828002031 0)
(202.833132 0.0818705887 0)
(202.825272 0.0808498213 0)
(202.817485 0.0797470563 0)
(202.809774 0.0785708215 0)
(202.802146 0.0773291274 0)
(202.794605 0.0760293391 0)
(202.787155 0.0746780761 0)
(202.779801 0.0732812184 0)
(202.772545 0.0718439462 0)
(202.765392 0.0703707449 0)
(202.758345 0.0688655702 0)
(202.751403 0.0673314063 0)
(202.744583 0.0657723005 0)
(202.737842 0.064185113 0)
(202.731341 0.0625918423 0)
(202.724548 0.0609060255 0)
(202.71935 0.0594781399 0)
(202.706802 0.056802697 0)
(202.850336 0.034036987 0)
(202.833847 0.0654350372 0)
(202.813914 0.0577677791 0)
(202.794932 0.0181397715 0)
(202.785482 -0.0483303167 0)
(202.791483 -0.139428346 0)
(202.817201 -0.251004766 0)
(202.866445 -0.372333403 0)
(202.940589 -0.485272408 0)
(203.036899 -0.567915308 0)
(203.148225 -0.600933965 0)
(203.264063 -0.573391595 0)
(203.372545 -0.485536776 0)
(203.462671 -0.34801493 0)
(203.525909 -0.178561046 0)
(203.556905 0.00207345276 0)
(203.559163 0.174830318 0)
(203.53401 0.32381268 0)
(203.484875 0.438299123 0)
(203.417581 0.512686237 0)
(203.339356 0.545851567 0)
(203.257355 0.540190341 0)
(203.178029 0.500801629 0)
(203.106959 0.435041318 0)
(203.048633 0.35273364 0)
(203.006032 0.266559161 0)
(202.979953 0.19187198 0)
(202.968207 0.145325464 0)
(202.96507 0.142193246 0)
(202.961584 0.192980195 0)
(202.94695 0.300350362 0)
(202.910491 0.457476346 0)
(202.843535 0.648735539 0)
(202.740916 0.852922517 0)
(202.60179 1.04818741 0)
(202.429452 1.21721479 0)
(202.230123 1.35095289 0)
(202.01111 1.44964713 0)
(201.778943 1.52094776 0)
(201.538083 1.57602471 0)
(201.290528 1.62535332 0)
(201.036282 1.67576559 0)
(200.774302 1.72957178 0)
(200.503464 1.78552666 0)
(200.223183 1.84069805 0)
(199.933608 1.89218962 0)
(199.635478 1.93808036 0)
(199.329855 1.97752031 0)
(199.017898 2.01032242 0)
(198.70076 2.03647439 0)
(198.379583 2.05583857 0)
(198.055539 2.06808931 0)
(197.729868 2.0727963 0)
(197.403891 2.06953642 0)
(197.078999 2.05796486 0)
(196.75663 2.03783492 0)
(196.438252 2.00898849 0)
(196.125342 1.9713412 0)
(195.819374 1.92487396 0)
(195.521804 1.86963113 0)
(195.234062 1.80572072 0)
(194.957529 1.7333134 0)
(194.693532 1.65263974 0)
(194.443328 1.56398669 0)
(194.208096 1.46769515 0)
(193.988929 1.36415894 0)
(193.786834 1.25382394 0)
(193.602741 1.13718498 0)
(193.437513 1.01477891 0)
(193.291949 0.887173728 0)
(193.166793 0.75495688 0)
(193.062733 0.618724332 0)
(192.98038 0.479085863 0)
(192.920278 0.33663701 0)
(192.882918 0.192029935 0)
(192.868299 0.0461359587 0)
(192.877912 -0.100640684 0)
(192.911436 -0.247654151 0)
(192.968465 -0.394057054 0)
(193.048843 -0.539134537 0)
(193.152246 -0.682106411 0)
(193.278269 -0.822129589 0)
(193.426374 -0.958344737 0)
(193.595836 -1.08987242 0)
(193.785758 -1.21581634 0)
(193.995094 -1.33527921 0)
(194.222643 -1.44737936 0)
(194.467053 -1.55126893 0)
(194.726833 -1.64615711 0)
(195.000366 -1.73133606 0)
(195.285929 -1.80620542 0)
(195.581708 -1.8702921 0)
(195.885826 -1.92326397 0)
(196.196366 -1.96493723 0)
(196.511398 -1.99527824 0)
(196.829011 -2.01440093 0)
(197.147339 -2.02256057 0)
(197.464587 -2.02014438 0)
(197.779056 -2.00765928 0)
(198.089162 -1.985717 0)
(198.393451 -1.95501718 0)
(198.69062 -1.91632912 0)
(198.979514 -1.87047287 0)
(199.259142 -1.81830043 0)
(199.528668 -1.76067774 0)
(199.787415 -1.69846803 0)
(200.034858 -1.63251676 0)
(200.270615 -1.56363875 0)
(200.494441 -1.4926074 0)
(200.70621 -1.4201461 0)
(200.90591 -1.3469218 0)
(201.093629 -1.2735407 0)
(201.269541 -1.20054575 0)
(201.433892 -1.12841593 0)
(201.586995 -1.05756707 0)
(201.729212 -0.988353923 0)
(201.860945 -0.921073155 0)
(201.982631 -0.855967078 0)
(202.094726 -0.793227851 0)
(202.197703 -0.733001884 0)
(202.292043 -0.675394316 0)
(202.37823 -0.620473367 0)
(202.456743 -0.568274501 0)
(202.528054 -0.518804496 0)
(202.59263 -0.472045798 0)
(202.650923 -0.427961393 0)
(202.703371 -0.386499854 0)
(202.750393 -0.347599438 0)
(202.792386 -0.311190167 0)
(202.829719 -0.277194015 0)
(202.862737 -0.245524419 0)
(202.89176 -0.216086089 0)
(202.917088 -0.188775808 0)
(202.939003 -0.163484284 0)
(202.957771 -0.140098533 0)
(202.973644 -0.118504183 0)
(202.98686 -0.0985875267 0)
(202.997648 -0.0802373522 0)
(203.006218 -0.063346675 0)
(203.012773 -0.0478145135 0)
(203.017502 -0.0335474515 0)
(203.02057 -0.0204619534 0)
(203.022125 -0.00847965949 0)
(203.02218 0.00248349945 0)
(203.021098 0.0126019955 0)
(203.019153 0.0218670005 0)
(203.0165 0.0303249289 0)
(203.0132 0.0380138565 0)
(203.00929 0.0449596264 0)
(203.004826 0.0512007736 0)
(202.999856 0.0567771659 0)
(202.994417 0.061729724 0)
(202.988543 0.0661023626 0)
(202.982272 0.0699375221 0)
(202.975641 0.073275111 0)
(202.968689 0.0761545594 0)
(202.961458 0.0786145913 0)
(202.953987 0.0806921587 0)
(202.946313 0.0824216383 0)
(202.938475 0.0838341716 0)
(202.930506 0.0849573286 0)
(202.922435 0.0858156546 0)
(202.914291 0.0864311217 0)
(202.906096 0.0868234278 0)
(202.897872 0.0870103483 0)
(202.889638 0.0870081083 0)
(202.88141 0.0868317339 0)
(202.873199 0.0864953437 0)
(202.865018 0.0860123586 0)
(202.856876 0.0853956162 0)
(202.848782 0.0846574025 0)
(202.840742 0.0838094226 0)
(202.832765 0.0828627295 0)
(202.824855 0.0818276347 0)
(202.81702 0.0807135784 0)
(202.809265 0.0795292876 0)
(202.801594 0.0782829072 0)
(202.794015 0.0769818914 0)
(202.78653 0.075632911 0)
(202.779145 0.0742418642 0)
(202.77186 0.0728139181 0)
(202.764681 0.0713535076 0)
(202.757611 0.069864464 0)
(202.750647 0.0683494796 0)
(202.743805 0.066811884 0)
(202.737042 0.0652478893 0)
(202.730515 0.0636760277 0)
(202.723715 0.0620179647 0)
(202.718496 0.0605905508 0)
(202.706139 0.0579779642 0)
(202.850293 0.0443709634 0)
(202.832279 0.0866259826 0)
(202.809435 0.0784533336 0)
(202.787923 0.0284869998 0)
(202.776314 -0.0570001612 0)
(202.780472 -0.17498982 0)
(202.805946 -0.319934804 0)
(202.857545 -0.478105877 0)
(202.937032 -0.626183893 0)
(203.04168 -0.735877272 0)
(203.163808 -0.782053824 0)
(203.291869 -0.750271094 0)
(203.412655 -0.640478374 0)
(203.513755 -0.46608354 0)
(203.585735 -0.249732556 0)
(203.62406 -0.0176402689 0)
(203.629611 0.205593349 0)
(203.601219 0.398543059 0)
(203.54555 0.546885269 0)
(203.470535 0.643465912 0)
(203.384285 0.686906193 0)
(203.294849 0.680238751 0)
(203.209775 0.629922571 0)
(203.13566 0.545380366 0)
(203.077688 0.439193091 0)
(203.039026 0.327559161 0)
(203.020082 0.230094278 0)
(203.017881 0.1681639 0)
(203.025955 0.16151216 0)
(203.034836 0.223796481 0)
(203.033011 0.358495482 0)
(203.008573 0.556856796 0)
(202.951499 0.798888726 0)
(202.855685 1.05749846 0)
(202.719983 1.30480298 0)
(202.547977 1.51872524 0)
(202.346583 1.68772549 0)
(202.12395 1.81210363 0)
(201.887365 1.90159524 0)
(201.641803 1.97044137 0)
(201.389496 2.03203126 0)
(201.130446 2.095136 0)
(200.863462 2.16276362 0)
(200.587224 2.23336348 0)
(200.300979 2.30319428 0)
(200.004764 2.368525 0)
(199.699263 2.42685057 0)
(199.385525 2.4770341 0)
(199.064723 2.51879966 0)
(198.738036 2.55211309 0)
(198.406642 2.57679494 0)
(198.071758 2.59243394 0)
(197.734681 2.59848797 0)
(197.396803 2.59442456 0)
(197.059592 2.57981148 0)
(196.724578 2.55434283 0)
(196.393321 2.51782754 0)
(196.067395 2.47017073 0)
(195.748367 2.41136349 0)
(195.437785 2.34148137 0)
(195.137161 2.26068626 0)
(194.847958 2.16922685 0)
(194.571578 2.06743579 0)
(194.309357 1.95572351 0)
(194.062562 1.83456896 0)
(193.832388 1.70450746 0)
(193.619956 1.56611734 0)
(193.426304 1.42000836 0)
(193.252381 1.26681383 0)
(193.099035 1.10718648 0)
(192.967026 0.941797385 0)
(192.857023 0.771334487 0)
(192.769612 0.596499391 0)
(192.705319 0.418013477 0)
(192.664548 0.236588789 0)
(192.647683 0.0529197844 0)
(192.65693 -0.131917775 0)
(192.691289 -0.316924351 0)
(192.750057 -0.50120178 0)
(192.833191 -0.683806156 0)
(192.940529 -0.863711465 0)
(193.071748 -1.03983643 0)
(193.226357 -1.21107296 0)
(193.403678 -1.37628326 0)
(193.602837 -1.53430854 0)
(193.822767 -1.68399612 0)
(194.062207 -1.82422804 0)
(194.319709 -1.95394682 0)
(194.593652 -2.07218098 0)
(194.882265 -2.17806981 0)
(195.183644 -2.27088638 0)
(195.49578 -2.35005763 0)
(195.816591 -2.41518113 0)
(196.143948 -2.46603708 0)
(196.475712 -2.50259447 0)
(196.809765 -2.52501085 0)
(197.144045 -2.53362563 0)
(197.476577 -2.52894793 0)
(197.805502 -2.51163987 0)
(198.129098 -2.48249619 0)
(198.445802 -2.4424215 0)
(198.754222 -2.39240606 0)
(199.053149 -2.33350109 0)
(199.341556 -2.26679449 0)
(199.6186 -2.19338782 0)
(199.88362 -2.11437516 0)
(200.136121 -2.0308243 0)
(200.375776 -1.94376076 0)
(200.6024 -1.85415452 0)
(200.815946 -1.76290977 0)
(201.016483 -1.67085738 0)
(201.204188 -1.57875008 0)
(201.379324 -1.48725999 0)
(201.54223 -1.39697809 0)
(201.693306 -1.30841554 0)
(201.833 -1.22200647 0)
(201.961797 -1.13811176 0)
(202.080211 -1.05702393 0)
(202.188768 -0.978972487 0)
(202.288008 -0.904129753 0)
(202.37847 -0.832616974 0)
(202.460691 -0.764510614 0)
(202.5352 -0.699848767 0)
(202.602511 -0.638637325 0)
(202.663118 -0.580855255 0)
(202.717495 -0.5264582 0)
(202.766086 -0.475380512 0)
(202.809314 -0.427536955 0)
(202.84758 -0.382825292 0)
(202.881265 -0.341129951 0)
(202.910732 -0.302325992 0)
(202.936323 -0.266282224 0)
(202.958359 -0.232863205 0)
(202.97714 -0.201930561 0)
(202.992944 -0.173344285 0)
(203.006029 -0.146964155 0)
(203.016636 -0.122651087 0)
(203.024991 -0.100268276 0)
(203.031301 -0.0796820326 0)
(203.035764 -0.0607623446 0)
(203.038566 -0.0433831839 0)
(203.039896 -0.0274238832 0)
(203.039953 -0.0127706595 0)
(203.039088 0.000658670121 0)
(203.037411 0.0129973552 0)
(203.034612 0.0243380993 0)
(203.030835 0.0347317415 0)
(203.026242 0.0442172341 0)
(203.020988 0.0528355297 0)
(203.015196 0.0606130555 0)
(203.008954 0.0675765452 0)
(203.002334 0.0737615017 0)
(202.99539 0.0792094842 0)
(202.988158 0.083968782 0)
(202.980671 0.0880928655 0)
(202.972961 0.0916356551 0)
(202.965061 0.0946489798 0)
(202.956995 0.0971813856 0)
(202.948793 0.0992774627 0)
(202.940477 0.1009775 0)
(202.932073 0.102317493 0)
(202.9236 0.10332991 0)
(202.915083 0.104044218 0)
(202.90654 0.104487159 0)
(202.897989 0.104682997 0)
(202.889447 0.104653759 0)
(202.88093 0.10441947 0)
(202.872449 0.103998383 0)
(202.864018 0.103407208 0)
(202.855648 0.102661331 0)
(202.847345 0.101774995 0)
(202.839118 0.100761454 0)
(202.830975 0.0996330952 0)
(202.82292 0.0984015222 0)
(202.814957 0.0970776833 0)
(202.807092 0.0956717215 0)
(202.799326 0.0941928305 0)
(202.791664 0.0926493241 0)
(202.784107 0.091048719 0)
(202.77666 0.0893977525 0)
(202.769321 0.0877023931 0)
(202.762095 0.0859678119 0)
(202.754983 0.0841985364 0)
(202.747981 0.0823978639 0)
(202.741106 0.0805701413 0)
(202.734309 0.0787119301 0)
(202.727752 0.0768464414 0)
(202.720888 0.0748863484 0)
(202.715633 0.0731976344 0)
(202.70291 0.0701733462 0)
(202.850416 0.0549480014 0)
(202.833043 0.110360393 0)
(202.810827 0.106422578 0)
(202.78885 0.0527573553 0)
(202.776577 -0.0438901917 0)
(202.781785 -0.179661233 0)
(202.809009 -0.348100295 0)
(202.86247 -0.533527318 0)
(202.94383 -0.709169912 0)
(203.05029 -0.842220557 0)
(203.174209 -0.903127758 0)
(203.304219 -0.874408966 0)
(203.427349 -0.755164776 0)
(203.531398 -0.560254517 0)
(203.606934 -0.315530699 0)
(203.648285 -0.0516526782 0)
(203.657634 0.201218609 0)
(203.634993 0.420301055 0)
(203.584838 0.589652489 0)
(203.514421 0.700559901 0)
(203.431927 0.751014928 0)
(203.345565 0.744239801 0)
(203.262993 0.687299093 0)
(203.19091 0.590514951 0)
(203.134669 0.467777928 0)
(203.097726 0.337231133 0)
(203.080921 0.221259351 0)
(203.081762 0.144685925 0)
(203.0939 0.130850976 0)
(203.107384 0.196391368 0)
(203.110172 0.346318035 0)
(203.090256 0.57126708 0)
(203.037675 0.848397437 0)
(202.946215 1.14611545 0)
(202.814435 1.43147044 0)
(202.645564 1.67803906 0)
(202.446232 1.87173241 0)
(202.224455 2.01257218 0)
(201.987533 2.11199648 0)
(201.740548 2.18703332 0)
(201.485864 2.25384632 0)
(201.223573 2.32311872 0)
(200.952523 2.39858059 0)
(200.671389 2.47840347 0)
(200.379394 2.55805038 0)
(200.076557 2.63296113 0)
(199.763565 2.70005736 0)
(199.441488 2.75793781 0)
(199.111537 2.80626977 0)
(198.774941 2.8450316 0)
(198.432937 2.87403289 0)
(198.08681 2.89280164 0)
(197.737939 2.90070404 0)
(197.387802 2.89711555 0)
(197.037967 2.88153287 0)
(196.690068 2.85360714 0)
(196.345776 2.8131306 0)
(196.006778 2.76001385 0)
(195.674763 2.69427235 0)
(195.351398 2.61602249 0)
(195.038316 2.5254805 0)
(194.737102 2.42295816 0)
(194.449268 2.30885429 0)
(194.176244 2.18364368 0)
(193.919356 2.04786655 0)
(193.679815 1.90212042 0)
(193.458722 1.74705389 0)
(193.257075 1.58336006 0)
(193.075791 1.41176807 0)
(192.915719 1.23303315 0)
(192.777646 1.04792758 0)
(192.662297 0.857234279 0)
(192.570326 0.661749768 0)
(192.50229 0.462282068 0)
(192.458642 0.259674133 0)
(192.439769 0.0548720046 0)
(192.44816 -0.151226898 0)
(192.482737 -0.357747427 0)
(192.542947 -0.563695358 0)
(192.628797 -0.767977484 0)
(192.740116 -0.969435128 0)
(192.876583 -1.1668493 0)
(193.037714 -1.35894642 0)
(193.222835 -1.54441062 0)
(193.431071 -1.72190072 0)
(193.661335 -1.89007259 0)
(193.912331 -2.04760698 0)
(194.182547 -2.19324155 0)
(194.47027 -2.32580665 0)
(194.773598 -2.44426161 0)
(195.090465 -2.54772838 0)
(195.41867 -2.63551917 0)
(195.755916 -2.70715711 0)
(196.099846 -2.76238907 0)
(196.44809 -2.80119103 0)
(196.798303 -2.82376604 0)
(197.148212 -2.83053521 0)
(197.495644 -2.82212226 0)
(197.838569 -2.79933252 0)
(198.175121 -2.76312747 0)
(198.503622 -2.71459608 0)
(198.822597 -2.65492452 0)
(199.130783 -2.58536545 0)
(199.427131 -2.50720816 0)
(199.7108 -2.42175043 0)
(199.981158 -2.3302733 0)
(200.237762 -2.23401878 0)
(200.480346 -2.13417136 0)
(200.708809 -2.0318431 0)
(200.923192 -1.92806241 0)
(201.123661 -1.82376623 0)
(201.310491 -1.71979551 0)
(201.484047 -1.61689341 0)
(201.644765 -1.51570593 0)
(201.793142 -1.41678474 0)
(201.929716 -1.32059153 0)
(202.055056 -1.22750365 0)
(202.169751 -1.13782052 0)
(202.274398 -1.05177058 0)
(202.369596 -0.969518304 0)
(202.455937 -0.891171267 0)
(202.534002 -0.816786666 0)
(202.604352 -0.746377219 0)
(202.667529 -0.679916455 0)
(202.724056 -0.617344128 0)
(202.774438 -0.558572435 0)
(202.819158 -0.503493056 0)
(202.85868 -0.451983873 0)
(202.893433 -0.403913796 0)
(202.923813 -0.359145039 0)
(202.950185 -0.31753372 0)
(202.97288 -0.278930327 0)
(202.992206 -0.243181022 0)
(203.00845 -0.210129683 0)
(203.021878 -0.179619987 0)
(203.03274 -0.151497105 0)
(203.041271 -0.125608993 0)
(203.047691 -0.101807701 0)
(203.052204 -0.07995095 0)
(203.055003 -0.0599037361 0)
(203.056265 -0.0415400745 0)
(203.056143 -0.0247447184 0)
(203.054737 -0.00941788541 0)
(203.052136 0.00454789653 0)
(203.048644 0.0171384978 0)
(203.044454 0.0284866541 0)
(203.039659 0.0387062714 0)
(203.034308 0.047919847 0)
(203.028423 0.0562294913 0)
(203.022044 0.0637127106 0)
(203.015231 0.0704324922 0)
(203.008038 0.0764367303 0)
(203.000513 0.0817652331 0)
(202.992708 0.0864583116 0)
(202.984668 0.0905582291 0)
(202.97643 0.094106679 0)
(202.968028 0.0971441992 0)
(202.959493 0.0997100988 0)
(202.950856 0.101842148 0)
(202.942141 0.10357638 0)
(202.933374 0.104946931 0)
(202.924578 0.105985464 0)
(202.915773 0.106720974 0)
(202.906976 0.107179938 0)
(202.898204 0.107386547 0)
(202.88947 0.107362979 0)
(202.880785 0.10712967 0)
(202.872159 0.106705558 0)
(202.863599 0.106108275 0)
(202.855113 0.10535427 0)
(202.846706 0.104458891 0)
(202.838384 0.103436416 0)
(202.830153 0.10230008 0)
(202.822015 0.101062084 0)
(202.813975 0.0997336275 0)
(202.806039 0.0983249063 0)
(202.798207 0.0968451576 0)
(202.790485 0.0953027269 0)
(202.782874 0.0937051128 0)
(202.775376 0.0920589985 0)
(202.767993 0.0903703001 0)
(202.760727 0.0886441654 0)
(202.753578 0.0868851602 0)
(202.746543 0.0850966824 0)
(202.739637 0.0832832395 0)
(202.732813 0.0814419567 0)
(202.726228 0.0795948015 0)
(202.719366 0.0776637907 0)
(202.7141 0.0759820824 0)
(202.701655 0.0730686826 0)
(202.850379 0.0656013161 0)
(202.832271 0.132805148 0)
(202.809034 0.130066359 0)
(202.786762 0.0685402876 0)
(202.774612 -0.0435517527 0)
(202.780256 -0.202222295 0)
(202.808776 -0.40013298 0)
(202.865001 -0.618843044 0)
(202.950692 -0.826934466 0)
(203.062954 -0.98580298 0)
(203.193786 -1.06051874 0)
(203.331235 -1.03023753 0)
(203.461671 -0.893558438 0)
(203.572303 -0.667586706 0)
(203.65318 -0.38244949 0)
(203.698358 -0.0739125569 0)
(203.710079 0.223962089 0)
(203.688837 0.482655186 0)
(203.638978 0.68257818 0)
(203.568077 0.813520644 0)
(203.484824 0.873162653 0)
(203.397994 0.865188463 0)
(203.315785 0.797756986 0)
(203.245337 0.682862636 0)
(203.192233 0.536738194 0)
(203.159922 0.380695954 0)
(203.148991 0.24110197 0)
(203.156513 0.147245691 0)
(203.175928 0.126724071 0)
(203.197486 0.19922053 0)
(203.209088 0.370771788 0)
(203.198021 0.630687446 0)
(203.153429 0.952493091 0)
(203.068449 1.29931183 0)
(202.941299 1.63248096 0)
(202.775137 1.92081951 0)
(202.576716 2.14751016 0)
(202.354291 2.31228249 0)
(202.115438 2.42834664 0)
(201.865494 2.51561112 0)
(201.607001 2.59310601 0)
(201.340141 2.67351492 0)
(201.063768 2.76137521 0)
(200.776504 2.85465579 0)
(200.477497 2.94807559 0)
(200.166697 3.03626297 0)
(199.844743 3.11554977 0)
(199.512694 3.18422968 0)
(199.171774 3.24186201 0)
(198.823249 3.28838707 0)
(198.468413 3.32355853 0)
(198.108628 3.3468047 0)
(197.745358 3.35736515 0)
(197.380189 3.35449092 0)
(197.014806 3.33757702 0)
(196.650973 3.30620269 0)
(196.2905 3.26011617 0)
(195.935213 3.19920774 0)
(195.586935 3.12349341 0)
(195.247461 3.03311061 0)
(194.918536 2.92831806 0)
(194.601832 2.80949319 0)
(194.298942 2.67712495 0)
(194.011363 2.53180227 0)
(193.740505 2.37419949 0)
(193.48769 2.20505952 0)
(193.254147 2.02517624 0)
(193.041009 1.83537776 0)
(192.849291 1.63651211 0)
(192.679893 1.42943655 0)
(192.533607 1.21501144 0)
(192.411131 0.994100332 0)
(192.313083 0.7675734 0)
(192.240045 0.536317321 0)
(192.19259 0.301254636 0)
(192.171195 0.0633290846 0)
(192.178658 -0.176500491 0)
(192.213596 -0.417046197 0)
(192.27538 -0.657106811 0)
(192.364148 -0.895444705 0)
(192.479886 -1.13072227 0)
(192.622408 -1.36149851 0)
(192.791338 -1.58624496 0)
(192.986071 -1.80336631 0)
(193.205754 -2.01122634 0)
(193.449275 -2.20818217 0)
(193.715261 -2.39262438 0)
(194.002076 -2.56301863 0)
(194.307836 -2.71794721 0)
(194.63043 -2.85614949 0)
(194.967551 -2.97656029 0)
(195.31673 -3.07834386 0)
(195.675387 -3.16092117 0)
(196.040871 -3.22398848 0)
(196.410513 -3.26752578 0)
(196.781683 -3.2917948 0)
(197.151832 -3.29732701 0)
(197.518543 -3.28490292 0)
(197.879569 -3.25552425 0)
(198.232862 -3.21038058 0)
(198.576603 -3.15081244 0)
(198.909215 -3.07827274 0)
(199.229371 -2.99428799 0)
(199.535998 -2.90042111 0)
(199.828264 -2.79823695 0)
(200.105576 -2.68927159 0)
(200.367556 -2.57500587 0)
(200.614026 -2.45684371 0)
(200.844987 -2.3360951 0)
(201.060595 -2.21396372 0)
(201.261138 -2.09153885 0)
(201.447019 -1.9697912 0)
(201.618728 -1.84957206 0)
(201.776826 -1.73161527 0)
(201.921926 -1.6165415 0)
(202.054681 -1.50486419 0)
(202.175763 -1.39699678 0)
(202.285857 -1.29326079 0)
(202.385648 -1.19389446 0)
(202.475815 -1.09906155 0)
(202.557021 -1.00886033 0)
(202.629914 -0.923332404 0)
(202.695119 -0.84247163 0)
(202.753232 -0.766232666 0)
(202.804822 -0.694538645 0)