/*--------------------------------*- C++ -*----------------------------------*\
| =========                 |                                                 |
| \\      /  F ield         | OpenFOAM: The Open Source CFD Toolbox           |
|  \\    /   O peration     | Version:  v2012                                 |
|   \\  /    A nd           | Website:  www.openfoam.com                      |
|    \\/     M anipulation  |                                                 |
\*---------------------------------------------------------------------------*/
FoamFile
{
    version     2.0;
    format      ascii;
    class       surfaceScalarField;
    location    "2.49";
    object      phi;
}
// * * * * * * * * * * * * * * * * * * * * * * * * * * * * * * * * * * * * * //

dimensions      [0 3 -1 0 0 0 0];
oriented        oriented;


internalField   nonuniform List<scalar> 
56481
(
6.66641332e-07
7.01586336e-11
6.66553093e-07
2.6630553e-10
6.66380591e-07
5.25256274e-10
6.66112771e-07
8.21553159e-10
6.65751159e-07
1.12026438e-09
6.65306823e-07
1.38897779e-09
6.64797508e-07
1.60169804e-09
6.64245308e-07
1.74005565e-09
6.63674188e-07
1.79499739e-09
6.63107521e-07
1.76754505e-09
6.62566484e-07
1.66621514e-09
6.62069585e-07
1.50253039e-09
6.61632585e-07
1.28896714e-09
6.61267517e-07
1.04147138e-09
6.60980316e-07
7.83797107e-10
6.60767801e-07
5.48682535e-10
6.60615603e-07
3.73172912e-10
6.60498495e-07
2.89835221e-10
6.60384032e-07
3.16854313e-10
6.60240303e-07
4.52064344e-10
6.60042909e-07
6.75425623e-10
6.59778386e-07
9.54566288e-10
6.59444916e-07
1.25046492e-09
6.59050805e-07
1.52486255e-09
6.58611611e-07
1.74661317e-09
6.58147061e-07
1.8942549e-09
6.57678342e-07
1.9560785e-09
6.57226067e-07
1.92941183e-09
6.56809004e-07
1.81953082e-09
6.5644329e-07
1.63850231e-09
6.56141711e-07
1.40444242e-09
6.55912904e-07
1.14116818e-09
6.55761189e-07
8.77705396e-10
6.55680198e-07
6.4589263e-10
6.55657254e-07
4.77471808e-10
6.55672819e-07
4.01688169e-10
6.55702702e-07
4.36504083e-10
6.55723445e-07
5.82626799e-10
6.55715244e-07
8.24071753e-10
6.55665146e-07
1.12953788e-09
6.55568961e-07
1.45890553e-09
6.55431146e-07
1.77227354e-09
6.55262615e-07
2.03879643e-09
6.55077179e-07
2.24262542e-09
6.54887773e-07
2.38420366e-09
6.54703597e-07
2.47686497e-09
6.54528861e-07
2.54036606e-09
6.54363168e-07
2.59392217e-09
6.54203041e-07
2.65114205e-09
6.54043799e-07
2.71812955e-09
6.53881088e-07
2.7945568e-09
6.53711687e-07
2.87642249e-09
6.53533604e-07
2.95892339e-09
6.53345729e-07
3.03832573e-09
6.53147383e-07
3.11252131e-09
6.52938001e-07
3.18061962e-09
6.5271702e-07
3.24219204e-09
6.52483933e-07
3.29667051e-09
6.52238404e-07
3.34310161e-09
6.51980374e-07
3.38020097e-09
6.51710114e-07
3.40653959e-09
6.51428238e-07
3.4207144e-09
6.51135696e-07
3.42143964e-09
6.50833757e-07
3.40757094e-09
6.50523997e-07
3.37809534e-09
6.50208291e-07
3.33212379e-09
6.49888792e-07
3.26889585e-09
6.49567915e-07
3.1877861e-09
6.49248314e-07
3.0883236e-09
6.48932854e-07
2.97020344e-09
6.48624589e-07
2.83328985e-09
6.48326745e-07
2.67762487e-09
6.48042712e-07
2.50342681e-09
6.47776042e-07
2.31107913e-09
6.4753045e-07
2.10111684e-09
6.47309819e-07
1.87419468e-09
6.4711812e-07
1.63111955e-09
6.46959278e-07
1.37281588e-09
6.46837008e-07
1.10028754e-09
6.46754585e-07
8.14701494e-10
6.46714494e-07
5.17590576e-10
6.46717814e-07
2.11258654e-10
6.46769734e-07
-1.03589885e-10
6.46879541e-07
-4.24868785e-10
6.47047736e-07
-7.50596154e-10
6.47275099e-07
-1.08036319e-09
6.47562197e-07
-1.41216253e-09
6.4790941e-07
-1.74397139e-09
6.48316656e-07
-2.07347774e-09
6.48783263e-07
-2.3980942e-09
6.49307932e-07
-2.71510133e-09
6.49888702e-07
-3.0216889e-09
6.50522948e-07
-3.3149789e-09
6.51207416e-07
-3.59208955e-09
6.51938272e-07
-3.85021089e-09
6.52711157e-07
-4.08668084e-09
6.53521245e-07
-4.29907577e-09
6.54363305e-07
-4.48529092e-09
6.55231765e-07
-4.64359964e-09
6.56120791e-07
-4.77270848e-09
6.57024367e-07
-4.87178793e-09
6.57936403e-07
-4.94047788e-09
6.58850827e-07
-4.97889387e-09
6.59761701e-07
-4.98760654e-09
6.60663312e-07
-4.96761924e-09
6.61550261e-07
-4.92032007e-09
6.62417544e-07
-4.84744696e-09
6.63260605e-07
-4.75101972e-09
6.64075385e-07
-4.63328916e-09
6.64858351e-07
-4.49666956e-09
6.65606512e-07
-4.34368105e-09
6.66317416e-07
-4.17688224e-09
6.66989143e-07
-3.99882209e-09
6.67620278e-07
-3.81199009e-09
6.6820987e-07
-3.61876663e-09
6.6875738e-07
-3.42139086e-09
6.69262605e-07
-3.2219301e-09
6.69725654e-07
-3.02223167e-09
6.70146963e-07
-2.82386646e-09
6.7052741e-07
-2.62811007e-09
6.70868419e-07
-2.43597689e-09
6.71171812e-07
-2.24832956e-09
6.71439343e-07
-2.06595227e-09
6.71672562e-07
-1.88941355e-09
6.7187335e-07
-1.71950711e-09
6.72043847e-07
-1.55669874e-09
6.72186177e-07
-1.40114276e-09
6.72302426e-07
-1.25296965e-09
6.72394608e-07
-1.11224336e-09
6.72464639e-07
-9.78943375e-10
6.72514324e-07
-8.52932325e-10
6.72545436e-07
-7.34033995e-10
6.72559759e-07
-6.22040648e-10
6.72559108e-07
-5.16716809e-10
6.72545331e-07
-4.17832663e-10
6.72520354e-07
-3.2522867e-10
6.72486243e-07
-2.38906679e-10
6.72445125e-07
-1.59025288e-10
6.72398896e-07
-8.58840478e-11
6.72349011e-07
-2.02962454e-11
6.72293287e-07
4.02276675e-11
6.72228964e-07
9.29260064e-11
6.72156752e-07
1.38168813e-10
6.7207805e-07
1.77703287e-10
6.71993931e-07
2.12483009e-10
6.71905318e-07
2.43078147e-10
6.71813022e-07
2.69912919e-10
6.71717765e-07
2.93371637e-10
6.71620202e-07
3.13817359e-10
6.7152093e-07
3.31564316e-10
6.71420495e-07
3.46875605e-10
6.71319394e-07
3.59978742e-10
6.71218064e-07
3.71070591e-10
6.71116887e-07
3.80318522e-10
6.71016188e-07
3.87866173e-10
6.70916237e-07
3.93840411e-10
6.70817258e-07
3.98357184e-10
6.7071944e-07
4.01525022e-10
6.70622937e-07
4.0344696e-10
6.70527884e-07
4.04222711e-10
6.70434397e-07
4.03948653e-10
6.7034258e-07
4.02717962e-10
6.70252527e-07
4.00619232e-10
6.70164322e-07
3.97736771e-10
6.70078043e-07
3.94148787e-10
6.69993761e-07
3.8992748e-10
6.69911538e-07
3.85138205e-10
6.6983143e-07
3.79839734e-10
6.69753483e-07
3.74083755e-10
6.69677735e-07
3.67915938e-10
6.69604218e-07
3.61376598e-10
6.69532955e-07
3.54500971e-10
6.6946396e-07
3.47320674e-10
6.69397243e-07
3.39864511e-10
6.69332811e-07
3.32158648e-10
6.69270663e-07
3.24227673e-10
6.69210799e-07
3.16094894e-10
6.69153218e-07
3.07781953e-10
6.69097916e-07
2.99309324e-10
6.69044894e-07
2.90695771e-10
6.68994151e-07
2.81958331e-10
6.68945691e-07
2.73111331e-10
6.6889952e-07
2.64166475e-10
6.6885565e-07
2.55130842e-10
6.688141e-07
2.46010012e-10
6.68774899e-07
2.36781166e-10
6.68738086e-07
2.2750247e-10
6.68703803e-07
2.17749684e-10
6.68671932e-07
2.09169614e-10
1.93308407e-10
6.66660096e-07
7.66622743e-11
6.66601454e-07
3.24947588e-10
6.66456793e-07
6.69917809e-10
6.66206904e-07
1.0714415e-09
6.65849626e-07
1.47754248e-09
6.65395763e-07
1.84284075e-09
6.64864791e-07
2.13267041e-09
6.64281691e-07
2.32315585e-09
6.63674071e-07
2.40261701e-09
6.63069287e-07
2.37232929e-09
6.62492396e-07
2.2431057e-09
6.61965468e-07
2.02945893e-09
6.61507383e-07
1.74705146e-09
6.61132624e-07
1.41623099e-09
6.60848454e-07
1.06796706e-09
6.606515e-07
7.45636167e-10
6.60525815e-07
4.98858303e-10
6.60444491e-07
3.71159557e-10
6.60373593e-07
3.87751741e-10
6.60276983e-07
5.48674293e-10
6.6012327e-07
8.29138504e-10
6.59891696e-07
1.18614025e-09
6.59574409e-07
1.56775249e-09
6.59176542e-07
1.92272947e-09
6.58714358e-07
2.20879658e-09
6.58211556e-07
2.39705775e-09
6.57695201e-07
2.47243348e-09
6.5719255e-07
2.43206224e-09
6.5672895e-07
2.28313145e-09
6.56326488e-07
2.04096416e-09
6.56002927e-07
1.72800359e-09
6.55770415e-07
1.37367939e-09
6.55633842e-07
1.01427864e-09
6.55588637e-07
6.91097769e-10
6.55619342e-07
4.467668e-10
6.55702208e-07
3.18822411e-10
6.55807491e-07
3.31221053e-10
6.55902218e-07
4.8789916e-10
6.55956867e-07
7.69422902e-10
6.55951022e-07
1.13538281e-09
6.55876864e-07
1.53306374e-09
6.55739649e-07
1.90948897e-09
6.55554972e-07
2.22347293e-09
6.55343689e-07
2.45390877e-09
6.55126106e-07
2.6017865e-09
6.54917244e-07
2.68572663e-09
6.54724443e-07
2.73316701e-09
6.54547629e-07
2.77073672e-09
6.54381584e-07
2.8171872e-09
6.54218987e-07
2.88072653e-09
6.54053001e-07
2.96054216e-09
6.538787e-07
3.05072349e-09
6.5369327e-07
3.14435363e-09
6.53495424e-07
3.23617157e-09
6.53284602e-07
3.32334361e-09
6.53060377e-07
3.40484488e-09
6.52822228e-07
3.48034047e-09
6.52569603e-07
3.54929567e-09
6.523021e-07
3.61060501e-09
6.52019638e-07
3.6626621e-09
6.51722548e-07
3.7036303e-09
6.51411574e-07
3.73168765e-09
6.51087858e-07
3.74515631e-09
6.50752896e-07
3.74253289e-09
6.50408521e-07
3.72247054e-09
6.5005688e-07
3.68376419e-09
6.49700422e-07
3.62535455e-09
6.4934187e-07
3.54633728e-09
6.48984207e-07
3.44598722e-09
6.48630638e-07
3.32377215e-09
6.48284572e-07
3.17935542e-09
6.47949593e-07
3.01260399e-09
6.47629434e-07
2.82358636e-09
6.4732795e-07
2.61256265e-09
6.47049086e-07
2.37998098e-09
6.46796813e-07
2.12646738e-09
6.46575121e-07
1.85281212e-09
6.46387972e-07
1.55996426e-09
6.46239221e-07
1.24903945e-09
6.46132529e-07
9.21392746e-10
6.46072296e-07
5.77824078e-10
6.46064524e-07
2.19030153e-10
6.46111111e-07
-1.5017657e-10
6.46214385e-07
-5.28142664e-10
6.46377799e-07
-9.14010546e-10
6.46603476e-07
-1.30604012e-09
6.46893067e-07
-1.70175372e-09
6.47247414e-07
-2.09831775e-09
6.47666704e-07
-2.49276838e-09
6.48150491e-07
-2.88188112e-09
6.48697608e-07
-3.26221763e-09
6.49306132e-07
-3.63021307e-09
6.49973385e-07
-3.98223184e-09
6.50695945e-07
-4.31464982e-09
6.51469683e-07
-4.62394844e-09
6.52289807e-07
-4.90680552e-09
6.53150931e-07
-5.16019993e-09
6.54047146e-07
-5.38150537e-09
6.54972109e-07
-5.56856257e-09
6.55919151e-07
-5.71975062e-09
6.56881394e-07
-5.83403108e-09
6.57851878e-07
-5.91096144e-09
6.5882369e-07
-5.95070647e-09
6.59790098e-07
-5.95401397e-09
6.60744663e-07
-5.9221843e-09
6.6168135e-07
-5.85700695e-09
6.62594613e-07
-5.76071075e-09
6.63479468e-07
-5.63587429e-09
6.64331536e-07
-5.48535679e-09
6.65147076e-07
-5.31220993e-09
6.65922997e-07
-5.11960233e-09
6.66656849e-07
-4.91073373e-09
6.673468e-07
-4.68877314e-09
6.67991606e-07
-4.45679632e-09
6.68590565e-07
-4.21772557e-09
6.69143467e-07
-3.97429305e-09
6.69650542e-07
-3.72900501e-09
6.70112406e-07
-3.4840954e-09
6.70530028e-07
-3.2414885e-09
6.70904714e-07
-3.00279611e-09
6.71238094e-07
-2.76935731e-09
6.71532069e-07
-2.54230469e-09
6.71788718e-07
-2.32260049e-09
6.72010337e-07
-2.11103282e-09
6.72199067e-07
-1.90823774e-09
6.72357009e-07
-1.71464006e-09
6.72486341e-07
-1.53047482e-09
6.72589245e-07
-1.35587348e-09
6.72667904e-07
-1.19090236e-09
6.72724564e-07
-1.03560338e-09
6.72761268e-07
-8.89636996e-10
6.72779923e-07
-7.52688433e-10
6.72782388e-07
-6.24505978e-10
6.72770467e-07
-5.04795828e-10
6.727459e-07
-3.93265447e-10
6.7271035e-07
-2.89678457e-10
6.72665157e-07
-1.93714028e-10
6.72611038e-07
-1.04906057e-10
6.72547814e-07
-2.2660367e-11
6.72477929e-07
4.95887232e-11
6.72403795e-07
1.1436202e-10
6.72324817e-07
1.71903654e-10
6.72240669e-07
2.22317091e-10
6.7215185e-07
2.66522137e-10
6.72059004e-07
3.05329208e-10
6.71962763e-07
3.39319085e-10
6.7186373e-07
3.68945886e-10
6.71762485e-07
3.94616655e-10
6.71659576e-07
4.16725757e-10
6.71555506e-07
4.35634435e-10
6.71450727e-07
4.51655043e-10
6.71345647e-07
4.65059104e-10
6.71240633e-07
4.76084642e-10
6.71136012e-07
4.8493921e-10
6.71032073e-07
4.91804835e-10
6.70929069e-07
4.96844247e-10
6.7082722e-07
5.00206749e-10
6.70726713e-07
5.02031361e-10
6.70627712e-07
5.02448226e-10
6.70530354e-07
5.01580836e-10
6.70434757e-07
4.99545976e-10
6.70341021e-07
4.96454148e-10
6.70249231e-07
4.92408371e-10
6.70159463e-07
4.87505166e-10
6.70071779e-07
4.81832975e-10
6.69986233e-07
4.75472888e-10
6.69902873e-07
4.68498103e-10
6.69821739e-07
4.60974615e-10
6.69742862e-07
4.52960794e-10
6.69666269e-07
4.44508677e-10
6.69591981e-07
4.3566462e-10
6.69520012e-07
4.2646937e-10
6.69450374e-07
4.16959537e-10
6.6938307e-07
4.0716829e-10
6.69318103e-07
3.97125334e-10
6.69255473e-07
3.86858041e-10
6.69195176e-07
3.76391727e-10
6.69137209e-07
3.65749201e-10
6.69081567e-07
3.54951431e-10
6.69028245e-07
3.44017011e-10
6.68977241e-07
3.32962273e-10
6.68928552e-07
3.21800252e-10
6.68882178e-07
3.10540998e-10
6.68838119e-07
2.99189504e-10
6.68796379e-07
2.87750716e-10
6.68756961e-07
2.76198256e-10
6.68719842e-07
2.64622143e-10
6.68685061e-07
2.52530008e-10
6.68652055e-07
2.42175851e-10
2.23221481e-10
6.66649985e-07
9.33772349e-11
6.66580816e-07
3.94116669e-10
6.66428189e-07
8.22544634e-10
6.66173933e-07
1.32569745e-09
6.65816444e-07
1.83503149e-09
6.65365899e-07
2.29338632e-09
6.64840358e-07
2.65821064e-09
6.64263312e-07
2.90020195e-09
6.63661097e-07
3.00483241e-09
6.63060077e-07
2.97334887e-09
6.62484578e-07
2.81860468e-09
6.61956146e-07
2.55789151e-09
6.61493408e-07
2.20978892e-09
6.61111077e-07
1.7985623e-09
6.60817285e-07
1.36175851e-09
6.60610109e-07
9.52812628e-10
6.60475119e-07
6.33847944e-10
6.60385488e-07
4.60790905e-10
6.60305852e-07
4.67387586e-10
6.60199647e-07
6.54879098e-10
6.60036718e-07
9.92068004e-10
6.59798421e-07
1.42443689e-09
6.59479056e-07
1.88711807e-09
6.59084483e-07
2.31730254e-09
6.58629867e-07
2.66341264e-09
6.58136901e-07
2.89002299e-09
6.57630694e-07
2.97864081e-09
6.57137012e-07
2.92574432e-09
6.56680261e-07
2.73988204e-09
6.56282035e-07
2.43919041e-09
6.55959864e-07
2.05017412e-09
6.5572584e-07
1.60770406e-09
6.55585026e-07
1.15509246e-09
6.55533726e-07
7.42398168e-10
6.55558753e-07
4.2173905e-10
6.55637765e-07
2.39810717e-10
6.55740736e-07
2.28250147e-10
6.55835706e-07
3.92928612e-10
6.558948e-07
7.1032947e-10
6.55898442e-07
1.13174108e-09
6.55838295e-07
1.59321016e-09
6.55717961e-07
2.02982277e-09
6.55550887e-07
2.3905473e-09
6.55355962e-07
2.64883361e-09
6.55152204e-07
2.80554501e-09
6.54954201e-07
2.88372932e-09
6.54769608e-07
2.91776015e-09
6.54599097e-07
2.94124738e-09
6.54438262e-07
2.97802248e-09
6.54280362e-07
3.03862633e-09
6.54118782e-07
3.12212225e-09
6.53948484e-07
3.22102182e-09
6.53766341e-07
3.32649646e-09
6.53570701e-07
3.43181147e-09
6.5336069e-07
3.53335473e-09
6.53135664e-07
3.62987025e-09
6.5289498e-07
3.72102508e-09
6.52638025e-07
3.8062501e-09
6.52364384e-07
3.8842464e-09
6.52073982e-07
3.95306368e-09
6.51767177e-07
4.01043626e-09
6.51444767e-07
4.05409696e-09
6.51107978e-07
4.08194529e-09
6.50758424e-07
4.09208756e-09
6.5039808e-07
4.08281423e-09
6.50029263e-07
4.05258056e-09
6.49654607e-07
4.00001101e-09
6.49277032e-07
3.92391206e-09
6.48899718e-07
3.8233016e-09
6.48526065e-07
3.69742473e-09
6.48159666e-07
3.54575431e-09
6.47804275e-07
3.36799554e-09
6.47463782e-07
3.16407935e-09
6.47142196e-07
2.93414839e-09
6.46843624e-07
2.67855295e-09
6.46572251e-07
2.39784019e-09
6.46332322e-07
2.09274194e-09
6.46128105e-07
1.76418067e-09
6.45963875e-07
1.4132698e-09
6.45843954e-07
1.04131389e-09
6.45771935e-07
6.49842641e-10
6.4574891e-07
2.42055526e-10
6.45780877e-07
-1.82144235e-10
6.45872574e-07
-6.19839347e-10
6.46026947e-07
-1.06838303e-09
6.46246118e-07
-1.52521191e-09
6.46531759e-07
-1.98739455e-09
6.46885099e-07
-2.45165715e-09
6.47306677e-07
-2.91434708e-09
6.47796292e-07
-3.37149582e-09
6.48352964e-07
-3.81888918e-09
6.48974895e-07
-4.25214483e-09
6.4965945e-07
-4.66678611e-09
6.50403147e-07
-5.05834693e-09
6.51201685e-07
-5.42248701e-09
6.52049984e-07
-5.75510443e-09
6.52942249e-07
-6.05246507e-09
6.53872064e-07
-6.31131992e-09
6.54832499e-07
-6.52899797e-09
6.55816246e-07
-6.70349783e-09
6.56815761e-07
-6.83354604e-09
6.57823417e-07
-6.91861691e-09
6.58831657e-07
-6.95894672e-09
6.59833146e-07
-6.9555027e-09
6.60820903e-07
-6.90994177e-09
6.61788424e-07
-6.82452811e-09
6.62729779e-07
-6.70206527e-09
6.63639686e-07
-6.54578084e-09
6.64513564e-07
-6.35923527e-09
6.65347563e-07
-6.14620898e-09
6.66138566e-07
-5.91060565e-09
6.66884178e-07
-5.65634509e-09
6.67582691e-07
-5.38728593e-09
6.68233043e-07
-5.10714902e-09
6.68834763e-07
-4.81944581e-09
6.69387906e-07
-4.52743546e-09
6.69892985e-07
-4.23408436e-09
6.70350919e-07
-3.942029e-09
6.70762993e-07
-3.65356265e-09
6.71130833e-07
-3.37063611e-09
6.71456353e-07
-3.0948778e-09
6.71741684e-07
-2.82763492e-09
6.71989081e-07
-2.56999805e-09
6.72200867e-07
-2.32281866e-09
6.72379366e-07
-2.08673618e-09
6.72526917e-07
-1.8621915e-09
6.72645873e-07
-1.64943056e-09
6.72738542e-07
-1.44854261e-09
6.72807134e-07
-1.25949457e-09
6.72853667e-07
-1.0821367e-09
6.7288021e-07
-9.16179277e-10
6.72888808e-07
-7.61287012e-10
6.72881398e-07
-6.17095928e-10
6.72859783e-07
-4.83181037e-10
6.72825444e-07
-3.58926509e-10
6.72779759e-07
-2.43993168e-10
6.72725111e-07
-1.39065792e-10
6.72664354e-07
-4.41490093e-11
6.72598829e-07
4.28640434e-11
6.72526301e-07
1.22117132e-10
6.72447854e-07
1.92809238e-10
6.72364032e-07
2.55725574e-10
6.72275118e-07
3.11230529e-10
6.7218173e-07
3.59910465e-10
6.72084594e-07
4.02465595e-10
6.71984387e-07
4.39525632e-10
6.71881714e-07
4.71619097e-10
6.71777126e-07
4.99204586e-10
6.71671146e-07
5.22705698e-10
6.71564268e-07
5.42512984e-10
6.71456946e-07
5.58976512e-10
6.71349595e-07
5.72410533e-10
6.7124258e-07
5.83099736e-10
6.71136217e-07
5.91301294e-10
6.71030777e-07
5.97245704e-10
6.70926482e-07
6.01139189e-10
6.7082352e-07
6.03168164e-10
6.7072205e-07
6.03502016e-10
6.70622203e-07
6.02294751e-10
6.70524095e-07
5.99688511e-10
6.70427827e-07
5.95814814e-10
6.70333484e-07
5.90796243e-10
6.70241147e-07
5.84745881e-10
6.70150883e-07
5.77769171e-10
6.70062753e-07
5.69962611e-10
6.69976811e-07
5.61415037e-10
6.69893102e-07
5.52207198e-10
6.69811664e-07
5.42412571e-10
6.69732528e-07
5.32096762e-10
6.69655718e-07
5.21318841e-10
6.69581251e-07
5.10131868e-10
6.69509137e-07
4.98582688e-10
6.69439384e-07
4.86713357e-10
6.6937199e-07
4.74561675e-10
6.69306955e-07
4.62160959e-10
6.69244271e-07
4.49541246e-10
6.69183933e-07
4.36729593e-10
6.69125933e-07
4.23749624e-10
6.69070262e-07
4.1062243e-10
6.69016913e-07
3.97366129e-10
6.68965879e-07
3.83996214e-10
6.68917155e-07
3.70524611e-10
6.68870735e-07
3.56960285e-10
6.68826618e-07
3.43307269e-10
6.68784798e-07
3.295706e-10
6.68745275e-07
3.15720619e-10
6.68708037e-07
3.01860659e-10
6.6867316e-07
2.87406395e-10
6.68640435e-07
2.74901377e-10
2.52155948e-10
6.6665794e-07
1.02137491e-10
6.66599043e-07
4.53013615e-10
6.66456109e-07
9.65478139e-10
6.66207733e-07
1.57407419e-09
6.65850016e-07
2.19274789e-09
6.65392396e-07
2.75100636e-09
6.64853288e-07
3.19731823e-09
6.64257373e-07
3.4961173e-09
6.63632936e-07
3.62926981e-09
6.63008876e-07
3.59740862e-09
6.62412326e-07
3.41515483e-09
6.61867496e-07
3.10272134e-09
6.61395042e-07
2.68224299e-09
6.61010566e-07
2.18303869e-09
6.60721781e-07
1.65054271e-09
6.60525326e-07
1.14926813e-09
6.60404944e-07
7.54229477e-10
6.60332671e-07
5.33064403e-10
6.60273304e-07
5.26754686e-10
6.60189757e-07
7.38426302e-10
6.60048676e-07
1.13314825e-09
6.5982628e-07
1.64683306e-09
6.59512486e-07
2.20091178e-09
6.59111605e-07
2.71818371e-09
6.58639934e-07
3.13508374e-09
6.58121967e-07
3.40798978e-09
6.57586459e-07
3.51414901e-09
6.57063087e-07
3.44911594e-09
6.56580028e-07
3.22294119e-09
6.56162245e-07
2.85697403e-09
6.55830035e-07
2.3823838e-09
6.55597424e-07
1.84031477e-09
6.55470207e-07
1.28231015e-09
6.55443769e-07
7.68835653e-10
6.55501671e-07
3.63837667e-10
6.55617605e-07
1.23875843e-10
6.55760031e-07
8.58245437e-11
6.5589586e-07
2.57099379e-10
6.55992588e-07
6.13601703e-10
6.56026385e-07
1.09794436e-09
6.55986778e-07
1.63281658e-09
6.55877647e-07
2.13895399e-09
6.55714381e-07
2.55381362e-09
6.55518562e-07
2.84465262e-09
6.5531187e-07
3.01223711e-09
6.55110963e-07
3.0846364e-09
6.54924685e-07
3.10403797e-09
6.54754018e-07
3.11191451e-09
6.54594186e-07
3.13785432e-09
6.54437704e-07
3.19510801e-09
6.54277118e-07
3.28270847e-09
6.54106649e-07
3.39149034e-09
6.53922613e-07
3.51053274e-09
6.53722971e-07
3.63145321e-09
6.53506589e-07
3.74973696e-09
6.53272635e-07
3.86382425e-09
6.53020318e-07
3.97334263e-09
6.52748912e-07
4.07765603e-09
6.52457925e-07
4.17523261e-09
6.52147263e-07
4.26372645e-09
6.51817313e-07
4.34038608e-09
6.51468966e-07
4.40244338e-09
6.51103587e-07
4.44732506e-09
6.5072297e-07
4.47270453e-09
6.50329309e-07
4.47647473e-09
6.49925167e-07
4.45672265e-09
6.49513446e-07
4.4117321e-09
6.4909736e-07
4.33999787e-09
6.48680403e-07
4.24025829e-09
6.48266315e-07
4.11151294e-09
6.47859046e-07
3.95302341e-09
6.47462723e-07
3.76431901e-09
6.47081612e-07
3.54519036e-09
6.46720086e-07
3.29567458e-09
6.46382588e-07
3.01605037e-09
6.46073602e-07
2.7068263e-09
6.45797616e-07
2.36872755e-09
6.455591e-07
2.00269721e-09
6.45362472e-07
1.60989746e-09
6.45212081e-07
1.19170541e-09
6.45112239e-07
7.49684002e-10
6.4506876e-07
2.85534989e-10
6.4508461e-07
-1.97994916e-10
6.45163267e-07
-6.98496003e-10
6.45308099e-07
-1.21321522e-09
6.45522084e-07
-1.73919619e-09
6.45807578e-07
-2.27288912e-09
6.4616622e-07
-2.81029936e-09
6.46598924e-07
-3.34705079e-09
6.47105809e-07
-3.87838108e-09
6.47686114e-07
-4.39919366e-09
6.48338124e-07
-4.90415508e-09
6.49059133e-07
-5.38779533e-09
6.49845428e-07
-5.8446416e-09
6.50692305e-07
-6.26936434e-09
6.51594122e-07
-6.65692093e-09
6.52544375e-07
-7.00271812e-09
6.53535814e-07
-7.30275911e-09
6.54560578e-07
-7.55376169e-09
6.55610354e-07
-7.75327397e-09
6.56676558e-07
-7.89974973e-09
6.57750517e-07
-7.99257641e-09
6.58823663e-07
-8.03209233e-09
6.59887707e-07
-8.01954717e-09
6.60934811e-07
-7.95704602e-09
6.61957726e-07
-7.8474425e-09
6.62949907e-07
-7.69424616e-09
6.639056e-07
-7.50147443e-09
6.64819898e-07
-7.27353267e-09
6.65688759e-07
-7.0150706e-09
6.66509013e-07
-6.73085939e-09
6.67278327e-07
-6.4256594e-09
6.67995166e-07
-6.10412466e-09
6.68658728e-07
-5.77071119e-09
6.69268876e-07
-5.4295939e-09
6.6982606e-07
-5.08461925e-09
6.70331239e-07
-4.73926342e-09
6.70785808e-07
-4.3965983e-09
6.71191532e-07
-4.05928658e-09
6.71550482e-07
-3.72958575e-09
6.7186497e-07
-3.40936561e-09
6.72137482e-07
-3.10014719e-09
6.72370613e-07
-2.8031294e-09
6.72567015e-07
-2.51922014e-09
6.72729341e-07
-2.24906222e-09
6.72860212e-07
-1.99306295e-09
6.72962199e-07
-1.75141682e-09
6.73037793e-07
-1.52413648e-09
6.73089386e-07
-1.31108757e-09
6.7311926e-07
-1.11201144e-09
6.73129618e-07
-9.26536494e-10
6.73122544e-07
-7.54213548e-10
6.731e-07
-5.94551424e-10
6.73063874e-07
-4.47055904e-10
6.73016208e-07
-3.11259636e-10
6.72959009e-07
-1.86794171e-10
6.72893003e-07
-7.3060686e-11
6.72818237e-07
3.06178751e-11
6.72736439e-07
1.24661888e-10
6.72649142e-07
2.09413593e-10
6.72556891e-07
2.85060514e-10
6.72460417e-07
3.52199798e-10
6.72360213e-07
4.11434223e-10
6.72256761e-07
4.63362141e-10
6.72150607e-07
5.08619766e-10
6.72042309e-07
5.47823643e-10
6.71932394e-07
5.81534513e-10
6.71821341e-07
6.10257489e-10
6.71709587e-07
6.344594e-10
6.71597526e-07
6.54573809e-10
6.71485508e-07
6.70994714e-10
6.71373845e-07
6.8407324e-10
6.71262824e-07
6.94120988e-10
6.71152708e-07
7.01417316e-10
6.71043739e-07
7.0621517e-10
6.70936133e-07
7.0874485e-10
6.70830083e-07
7.09218364e-10
6.70725753e-07
7.07831367e-10
6.70623285e-07
7.04763542e-10
6.70522792e-07
7.0018084e-10
6.70424372e-07
6.94235551e-10
6.703281e-07
6.87067877e-10
6.7023404e-07
6.78805503e-10
6.70142243e-07
6.6956613e-10
6.7005275e-07
6.59456278e-10
6.69965592e-07
6.48573079e-10
6.69880795e-07
6.37004109e-10
6.69798379e-07
6.24828645e-10
6.69718358e-07
6.12117188e-10
6.69640744e-07
5.98933122e-10
6.69565542e-07
5.85333347e-10
6.69492757e-07
5.71368035e-10
6.69422388e-07
5.57082236e-10
6.69354433e-07
5.4251645e-10
6.69288888e-07
5.2770631e-10
6.69225745e-07
5.12683897e-10
6.69164997e-07
4.9747802e-10
6.69106633e-07
4.82113641e-10
6.69050643e-07
4.6661287e-10
6.68997014e-07
4.50994459e-10
6.68945736e-07
4.3527423e-10
6.68896797e-07
4.19464106e-10
6.68850184e-07
4.0357302e-10
6.68805886e-07
3.87604927e-10
6.6876389e-07
3.71566512e-10
6.68724185e-07
3.5542654e-10
6.68686727e-07
3.39317696e-10
6.68651547e-07
3.22586486e-10
6.68618134e-07
3.08314726e-10
2.82499065e-10
6.66655888e-07
1.12849388e-10
6.66595823e-07
5.13078221e-10
6.66451356e-07
1.10994597e-09
6.66200983e-07
1.82444696e-09
6.65840899e-07
2.55283189e-09
6.65380538e-07
3.21136686e-09
6.64838209e-07
3.73964743e-09
6.64238382e-07
4.09594458e-09
6.6360909e-07
4.2585613e-09
6.6297899e-07
4.22750911e-09
6.62374987e-07
4.0191578e-09
6.61821135e-07
3.65657311e-09
6.61338095e-07
3.16528349e-09
6.60941983e-07
2.57915023e-09
6.60641729e-07
1.95079702e-09
6.60435777e-07
1.35522035e-09
6.60309009e-07
8.80997027e-10
6.60233338e-07
6.08735027e-10
6.60171426e-07
5.88667531e-10
6.60084205e-07
8.25647316e-10
6.59938792e-07
1.27856036e-09
6.59713303e-07
1.8723223e-09
6.59398833e-07
2.51538159e-09
6.58999387e-07
3.11762986e-09
6.58530122e-07
3.60434854e-09
6.58014315e-07
3.92379747e-09
6.57479854e-07
4.04860975e-09
6.56956052e-07
3.9729181e-09
6.56471154e-07
3.70783908e-09
6.56050479e-07
3.27764921e-09
6.55714794e-07
2.71806809e-09
6.55478564e-07
2.07654492e-09
6.55348094e-07
1.41278081e-09
6.55320321e-07
7.96608058e-10
6.55382651e-07
3.01508067e-10
6.55512314e-07
-5.78698293e-12
6.55671894e-07
-7.37557765e-11
6.55825044e-07
1.0394913e-10
6.55937658e-07
5.00987478e-10
6.55987876e-07
1.04772728e-09
6.55965706e-07
1.65498638e-09
6.5587439e-07
2.23027005e-09
6.55728334e-07
2.69986961e-09
6.55548512e-07
3.02447394e-09
6.55356493e-07
3.20425632e-09
6.55169164e-07
3.27196575e-09
6.549957e-07
3.27750153e-09
6.54837302e-07
3.27031261e-09
6.54689187e-07
3.28596927e-09
6.54543645e-07
3.34065051e-09
6.54392857e-07
3.43349618e-09
6.54230641e-07
3.55370607e-09
6.54052932e-07
3.68824151e-09
6.53857368e-07
3.82701734e-09
6.53642546e-07
3.96455905e-09
6.53407416e-07
4.09895453e-09
6.53151009e-07
4.22974942e-09
6.52872467e-07
4.35619773e-09
6.52571214e-07
4.47648593e-09
6.52247124e-07
4.58781675e-09
6.51900617e-07
4.6868932e-09
6.51532674e-07
4.77038581e-09
6.51144809e-07
4.83519008e-09
6.50739022e-07
4.87849198e-09
6.50317759e-07
4.89773757e-09
6.49883878e-07
4.89060364e-09
6.49440608e-07
4.85500197e-09
6.48991508e-07
4.78909807e-09
6.48540416e-07
4.69135001e-09
6.48091401e-07
4.56052786e-09
6.47648714e-07
4.39571041e-09
6.47216749e-07
4.19628395e-09
6.46800013e-07
3.96192645e-09
6.46403104e-07
3.69258388e-09
6.46030693e-07
3.38846136e-09
6.45687509e-07
3.05001024e-09
6.45378321e-07
2.67791541e-09
6.4510792e-07
2.27309862e-09
6.44881097e-07
1.83672014e-09
6.44702599e-07
1.37020395e-09
6.44577002e-07
8.75280728e-10
6.44508097e-07
3.54440252e-10
6.44500942e-07
-1.90840638e-10
6.44560025e-07
-7.57579179e-10
6.44689313e-07
-1.34250242e-09
6.44892145e-07
-1.94202887e-09
6.45171332e-07
-2.55207566e-09
6.45529063e-07
-3.16803018e-09
6.45966748e-07
-3.78473564e-09
6.46484908e-07
-4.39654149e-09
6.47083083e-07
-4.99736869e-09
6.47759741e-07
-5.58081318e-09
6.48512212e-07
-6.14026577e-09
6.49336647e-07
-6.66907664e-09
6.5022802e-07
-7.16073787e-09
6.51180167e-07
-7.60906767e-09
6.52185868e-07
-8.00841884e-09
6.53236979e-07
-8.35387019e-09
6.543246e-07
-8.64138335e-09
6.55439279e-07
-8.86795274e-09
6.56571233e-07
-9.03170389e-09
6.57710587e-07
-9.1319307e-09
6.58847609e-07
-9.16911371e-09
6.59972929e-07
-9.14486698e-09
6.61077743e-07
-9.06186081e-09
6.62153983e-07
-8.92368225e-09
6.63194446e-07
-8.73470937e-09
6.64192893e-07
-8.49992149e-09
6.65144103e-07
-8.22474211e-09
6.66043889e-07
-7.91485712e-09
6.66889089e-07
-7.57605941e-09
6.67677517e-07
-7.21408678e-09
6.68407898e-07
-6.83450535e-09
6.69079788e-07
-6.44260125e-09
6.69693479e-07
-6.04328579e-09
6.70249904e-07
-5.64104425e-09
6.70750535e-07
-5.23989362e-09
6.71197288e-07
-4.84335199e-09
6.71592445e-07
-4.45444289e-09
6.71938565e-07
-4.07570605e-09
6.72238417e-07
-3.70921743e-09
6.72494901e-07
-3.35663178e-09
6.72710988e-07
-3.01921574e-09
6.72889657e-07
-2.69788925e-09
6.73033854e-07
-2.39325965e-09
6.73146456e-07
-2.10566434e-09
6.73230245e-07
-1.83520599e-09
6.73287895e-07
-1.58178684e-09
6.73321956e-07
-1.3451483e-09
6.73334846e-07
-1.12490183e-09
6.73328864e-07
-9.20553888e-10
6.73306185e-07
-7.31534782e-10
6.73268843e-07
-5.5720924e-10
6.73218652e-07
-3.96865103e-10
6.73157097e-07
-2.49705126e-10
6.73085325e-07
-1.15021307e-10
6.73004466e-07
7.79786987e-12
6.7291772e-07
1.173634e-10
6.72825312e-07
2.17070646e-10
6.72728115e-07
3.06610492e-10
6.72626695e-07
3.86480567e-10
6.72521613e-07
4.57281727e-10
6.72413414e-07
5.19633535e-10
6.72302612e-07
5.74163604e-10
6.72189716e-07
6.21515739e-10
6.72075222e-07
6.62317884e-10
6.71959599e-07
6.97157151e-10
6.71843286e-07
7.26570868e-10
6.71726693e-07
7.51051805e-10
6.71610213e-07
7.7105458e-10
6.71494207e-07
7.87000244e-10
6.71379002e-07
7.99277877e-10
6.71264879e-07
8.08244237e-10
6.71152072e-07
8.14224213e-10
6.71040777e-07
8.17510963e-10
6.70931154e-07
8.1836726e-10
6.70823342e-07
8.17030798e-10
6.70717455e-07
8.13717638e-10
6.70613595e-07
8.08623617e-10
6.70511848e-07
8.01928108e-10
6.70412288e-07
7.9379513e-10
6.70314981e-07
7.8437555e-10
6.7021998e-07
7.73806544e-10
6.70127331e-07
7.62214451e-10
6.70037074e-07
7.49713529e-10
6.69949239e-07
7.36408174e-10
6.6986385e-07
7.22392807e-10
6.69780926e-07
7.07753265e-10
6.69700477e-07
6.92566163e-10
6.69622509e-07
6.76900649e-10
6.69547024e-07
6.60818952e-10
6.69474016e-07
6.4437592e-10
6.69403477e-07
6.27620633e-10
6.69335397e-07
6.10596867e-10
6.69269761e-07
5.93342617e-10
6.69206553e-07
5.75891549e-10
6.69145758e-07
5.58273347e-10
6.69087358e-07
5.4051318e-10
6.69031338e-07
5.22632974e-10
6.68977681e-07
5.04651007e-10
6.68926373e-07
4.86582581e-10
6.68877398e-07
4.6843913e-10
6.68830742e-07
4.5022939e-10
6.68786389e-07
4.31957528e-10
6.68744324e-07
4.13631544e-10
6.68704532e-07
3.95218689e-10
6.68666984e-07
3.76865792e-10
6.68631742e-07
3.57828167e-10
6.68598565e-07
3.41491559e-10
3.11920336e-10
6.66656421e-07
1.23128826e-10
6.66596751e-07
5.72747978e-10
6.66452508e-07
1.25418924e-09
6.66201287e-07
2.07566711e-09
6.65838226e-07
2.91589375e-09
6.65371855e-07
3.67773701e-09
6.64820083e-07
4.29141985e-09
6.64207685e-07
4.70834264e-09
6.63563672e-07
4.9025741e-09
6.62918116e-07
4.87306514e-09
6.62299524e-07
4.63774958e-09
6.61733566e-07
4.22253179e-09
6.61242393e-07
3.65645638e-09
6.60843156e-07
2.97838703e-09
6.605448e-07
2.2491528e-09
6.6034428e-07
1.55574053e-09
6.60224784e-07
1.00049307e-09
6.60156737e-07
6.7678207e-10
6.60102865e-07
6.42539772e-10
6.60023629e-07
9.048834e-10