/*--------------------------------*- C++ -*----------------------------------*\
| =========                 |                                                 |
| \\      /  F ield         | OpenFOAM: The Open Source CFD Toolbox           |
|  \\    /   O peration     | Version:  v2012                                 |
|   \\  /    A nd           | Website:  www.openfoam.com                      |
|    \\/     M anipulation  |                                                 |
\*---------------------------------------------------------------------------*/
FoamFile
{
    version     2.0;
    format      ascii;
    class       volVectorField;
    location    "2.04";
    object      H;
}
// * * * * * * * * * * * * * * * * * * * * * * * * * * * * * * * * * * * * * //

dimensions      [0 1 -2 0 0 0 0];


internalField   nonuniform List<vector> 
28416
(
(257.61339 0.00209115208 0)
(257.605631 -0.00997131729 0)
(257.604629 -0.0380952186 0)
(257.615137 -0.0807764883 0)
(257.643287 -0.137527422 0)
(257.693879 -0.206547329 0)
(257.770703 -0.281281442 0)
(257.874782 -0.349907934 0)
(258.00262 -0.398015443 0)
(258.145865 -0.412863165 0)
(258.292574 -0.387294384 0)
(258.429447 -0.321639743 0)
(258.544257 -0.223048111 0)
(258.627455 -0.103059293 0)
(258.673717 0.0258419597 0)
(258.688203 0.153598313 0)
(258.675072 0.266060781 0)
(258.637464 0.353281781 0)
(258.580452 0.410451483 0)
(258.510748 0.436044107 0)
(258.434891 0.431435149 0)
(258.358797 0.40065147 0)
(258.287465 0.349962297 0)
(258.225028 0.287967129 0)
(258.174851 0.224995463 0)
(258.138371 0.172261625 0)
(258.113627 0.14090079 0)
(258.094589 0.14053832 0)
(258.071622 0.17753678 0)
(258.033173 0.253337776 0)
(257.968044 0.363385116 0)
(257.867436 0.497441095 0)
(257.7264 0.641611539 0)
(257.544512 0.781506345 0)
(257.325488 0.90553018 0)
(257.075808 1.00725854 0)
(256.802822 1.08614076 0)
(256.512951 1.14639045 0)
(256.210528 1.19463355 0)
(255.89753 1.2373239 0)
(255.5741 1.27889153 0)
(255.239489 1.32111916 0)
(254.89296 1.3636301 0)
(254.534347 1.40494264 0)
(254.164191 1.44347503 0)
(253.783587 1.47811803 0)
(253.39392 1.50832568 0)
(252.996665 1.53390999 0)
(252.593297 1.55477876 0)
(252.185294 1.570771 0)
(251.774175 1.58162188 0)
(251.361533 1.58700873 0)
(250.949042 1.58661354 0)
(250.538442 1.58016351 0)
(250.131522 1.56744344 0)
(249.730092 1.54829177 0)
(249.335971 1.52259337 0)
(248.950967 1.49027524 0)
(248.576863 1.45130531 0)
(248.2154 1.40569253 0)
(247.868262 1.35348733 0)
(247.537052 1.29478292 0)
(247.223283 1.22971869 0)
(246.928363 1.15848627 0)
(246.653589 1.08133768 0)
(246.400151 0.998593361 0)
(246.169141 0.910646008 0)
(245.961568 0.817956532 0)
(245.778379 0.721040271 0)
(245.620468 0.620445615 0)
(245.488698 0.516728965 0)
(245.383956 0.410416933 0)
(245.307091 0.301913408 0)
(245.258905 0.191541613 0)
(245.238593 0.079058596 0)
(245.244808 -0.034450043 0)
(245.279632 -0.146799907 0)
(245.344039 -0.258181083 0)
(245.437256 -0.368672642 0)
(245.558126 -0.47768705 0)
(245.706063 -0.584597378 0)
(245.880362 -0.688847483 0)
(246.080008 -0.789857925 0)
(246.30379 -0.887006675 0)
(246.550361 -0.97964764 0)
(246.818236 -1.06712202 0)
(247.10579 -1.14876874 0)
(247.411285 -1.2239474 0)
(247.732899 -1.29207058 0)
(248.068741 -1.35263441 0)
(248.416862 -1.40524023 0)
(248.775263 -1.44960533 0)
(249.14192 -1.48556447 0)
(249.51479 -1.51306568 0)
(249.891846 -1.53216375 0)
(250.271092 -1.5430134 0)
(250.650595 -1.54586232 0)
(251.028502 -1.54104358 0)
(251.403065 -1.52896692 0)
(251.772653 -1.51010844 0)
(252.135768 -1.48499912 0)
(252.491055 -1.45421237 0)
(252.837306 -1.41835118 0)
(253.173466 -1.37803537 0)
(253.498633 -1.33388944 0)
(253.812058 -1.28653149 0)
(254.113138 -1.23656343 0)
(254.401412 -1.18456274 0)
(254.676551 -1.13107561 0)
(254.938352 -1.07661151 0)
(255.186727 -1.02163889 0)
(255.421692 -0.966582284 0)
(255.643355 -0.911820843 0)
(255.851909 -0.857688154 0)
(256.047621 -0.804473417 0)
(256.230817 -0.752423442 0)
(256.401876 -0.701745165 0)
(256.56122 -0.652608562 0)
(256.709305 -0.605149774 0)
(256.84661 -0.559474249 0)
(256.973633 -0.515659834 0)
(257.090883 -0.473759878 0)
(257.198874 -0.433806616 0)
(257.298122 -0.395814939 0)
(257.389138 -0.359786641 0)
(257.472425 -0.325715002 0)
(257.548469 -0.293588335 0)
(257.617735 -0.263390601 0)
(257.680658 -0.235098924 0)
(257.737646 -0.208679897 0)
(257.78908 -0.184086564 0)
(257.835319 -0.161257296 0)
(257.876701 -0.140117153 0)
(257.913548 -0.120581233 0)
(257.946167 -0.102558332 0)
(257.974848 -0.0859535204 0)
(257.999865 -0.0706693924 0)
(258.021475 -0.0566061564 0)
(258.039915 -0.0436601849 0)
(258.055407 -0.0317206895 0)
(258.068153 -0.020663758 0)
(258.078357 -0.0103454967 0)
(258.08631 -0.000599201413 0)
(258.092313 0.00871214228 0)
(258.096728 0.0179147815 0)
(258.100121 0.0268457466 0)
(258.102696 0.0352150694 0)
(258.10447 0.0428755657 0)
(258.105434 0.049762074 0)
(258.105578 0.0558537846 0)
(258.104896 0.061173945 0)
(258.103395 0.0657753726 0)
(258.101101 0.069724687 0)
(258.098057 0.0730922364 0)
(258.094315 0.0759455747 0)
(258.089935 0.0783459081 0)
(258.084981 0.0803468777 0)
(258.079515 0.0819946204 0)
(258.073596 0.0833283514 0)
(258.067283 0.0843809719 0)
(258.060628 0.0851796649 0)
(258.053678 0.0857465957 0)
(258.046478 0.0860997512 0)
(258.039065 0.0862538992 0)
(258.031471 0.0862215918 0)
(258.023725 0.0860141055 0)
(258.015851 0.0856422265 0)
(258.007866 0.0851168081 0)
(257.999789 0.0844490727 0)
(257.991636 0.0836506672 0)
(257.983418 0.082733525 0)
(257.97515 0.0817096108 0)
(257.966843 0.0805906264 0)
(257.958508 0.0793877509 0)
(257.950157 0.0781114263 0)
(257.9418 0.0767710076 0)
(257.933446 0.0753747013 0)
(257.925104 0.073929702 0)
(257.916783 0.0724422739 0)
(257.908491 0.0709178011 0)
(257.900232 0.0693608484 0)
(257.892015 0.0677752121 0)
(257.883845 0.0661641401 0)
(257.875721 0.0645301037 0)
(257.867665 0.0628773122 0)
(257.859623 0.0612038468 0)
(257.8518 0.0595357463 0)
(257.843561 0.0577711784 0)
(257.837235 0.0563142693 0)
(257.822622 0.0533995713 0)
(257.615247 0.00902510931 0)
(257.604346 -0.00372730131 0)
(257.596948 -0.0481671941 0)
(257.599069 -0.120521744 0)
(257.619539 -0.218889183 0)
(257.66524 -0.339916815 0)
(257.74173 -0.472547583 0)
(257.851669 -0.596820018 0)
(257.992379 -0.688203645 0)
(258.154921 -0.724737874 0)
(258.325375 -0.693638712 0)
(258.487612 -0.594611435 0)
(258.626357 -0.439066935 0)
(258.729938 -0.246380028 0)
(258.793143 -0.0388741048 0)
(258.814794 0.161814931 0)
(258.794367 0.336803628 0)
(258.740161 0.473566529 0)
(258.662038 0.565067227 0)
(258.569457 0.609257058 0)
(258.471605 0.608389586 0)
(258.376912 0.568141969 0)
(258.292869 0.497079042 0)
(258.225521 0.406859544 0)
(258.178578 0.312154422 0)
(258.152699 0.230159 0)
(258.144752 0.179311703 0)
(258.147446 0.176634635 0)
(258.1497 0.233989597 0)
(258.137822 0.354538068 0)
(258.097578 0.53094512 0)
(258.016909 0.746217662 0)
(257.888401 0.977228788 0)
(257.710638 1.20007186 0)
(257.488022 1.39564205 0)
(257.229106 1.55364777 0)
(256.943994 1.67375154 0)
(256.641691 1.7636137 0)
(256.328283 1.83482095 0)
(256.006401 1.89843695 0)
(255.675896 1.96184403 0)
(255.335199 2.02773621 0)
(254.982675 2.09505301 0)
(254.617495 2.16088754 0)
(254.23987 2.222277 0)
(253.850838 2.27720135 0)
(253.451863 2.32471321 0)
(253.044525 2.36454118 0)
(252.630371 2.39660071 0)
(252.210916 2.42068929 0)
(251.787705 2.4364208 0)
(251.362371 2.44330792 0)
(250.936647 2.44087452 0)
(250.512357 2.42872763 0)
(250.091382 2.40657825 0)
(249.675634 2.37423281 0)
(249.267034 2.33157952 0)
(248.867491 2.2785812 0)
(248.478889 2.21527509 0)
(248.103066 2.14177516 0)
(247.741801 2.05827339 0)
(247.396799 1.96503895 0)
(247.069678 1.86241559 0)
(246.761959 1.75081737 0)
(246.475067 1.63072287 0)
(246.210327 1.50266774 0)
(245.968961 1.36723664 0)
(245.75209 1.22505602 0)
(245.560735 1.07678708 0)
(245.395818 0.923117599 0)
(245.258171 0.764748958 0)
(245.148508 0.602368527 0)
(245.067453 0.436572266 0)
(245.015083 0.267841375 0)
(244.991538 0.0964898594 0)
(244.998502 -0.0760153457 0)
(245.036182 -0.247584315 0)
(245.103171 -0.417853325 0)
(245.19951 -0.586404611 0)
(245.324837 -0.752293432 0)
(245.478547 -0.914558634 0)
(245.659898 -1.07228772 0)
(245.867942 -1.22453016 0)
(246.101513 -1.37029991 0)
(246.359253 -1.50861267 0)
(246.639632 -1.63851341 0)
(246.940955 -1.75909615 0)
(247.261383 -1.86952527 0)
(247.598953 -1.96905845 0)
(247.951599 -2.05706649 0)
(248.317173 -2.13304918 0)
(248.69346 -2.19664785 0)
(249.078209 -2.24765455 0)
(249.469156 -2.28601675 0)
(249.864053 -2.31183723 0)
(250.260701 -2.32536925 0)
(250.656975 -2.32700751 0)
(251.050851 -2.31727556 0)
(251.44043 -2.29681068 0)
(251.823959 -2.26634669 0)
(252.199837 -2.22669544 0)
(252.566638 -2.17872775 0)
(252.923105 -2.12335424 0)
(253.268164 -2.06150672 0)
(253.600914 -1.99412068 0)
(253.920627 -1.92211934 0)
(254.226741 -1.84639952 0)
(254.518854 -1.76781962 0)
(254.796706 -1.68718977 0)
(255.060176 -1.60526422 0)
(255.309261 -1.52273573 0)
(255.544069 -1.44023208 0)
(255.764803 -1.35831431 0)
(255.971747 -1.27747644 0)
(256.165259 -1.19814677 0)
(256.345753 -1.12069025 0)
(256.51369 -1.04541173 0)
(256.669569 -0.972560054 0)
(256.813916 -0.902332579 0)
(256.947274 -0.834879996 0)
(257.0702 -0.770311395 0)
(257.183252 -0.708699371 0)
(257.286988 -0.650085101 0)
(257.381956 -0.594483067 0)
(257.468692 -0.541884815 0)
(257.547716 -0.492261579 0)
(257.619524 -0.445566281 0)
(257.684596 -0.401735645 0)
(257.743387 -0.360692715 0)
(257.796331 -0.322349451 0)
(257.843837 -0.286608498 0)
(257.886292 -0.253363897 0)
(257.924056 -0.222501765 0)
(257.957471 -0.193901681 0)
(257.986856 -0.167438243 0)
(258.01251 -0.142982354 0)
(258.034717 -0.120402095 0)
(258.053743 -0.0995629491 0)
(258.069837 -0.0803269791 0)
(258.083246 -0.0625514669 0)
(258.094211 -0.0460866572 0)
(258.102988 -0.0307774393 0)
(258.109861 -0.0164758213 0)
(258.115217 -0.00311226301 0)
(258.11922 0.00936943517 0)
(258.121689 0.0209244029 0)
(258.122833 0.0316104402 0)
(258.122928 0.0414415768 0)
(258.122111 0.0503913053 0)
(258.120475 0.0584624832 0)
(258.1181 0.065681922 0)
(258.115041 0.0720887556 0)
(258.111345 0.0777321526 0)
(258.107057 0.0826671241 0)
(258.102218 0.0869504033 0)
(258.096872 0.0906381109 0)
(258.091064 0.0937842398 0)
(258.084841 0.0964396238 0)
(258.078247 0.0986514325 0)
(258.071328 0.100462326 0)
(258.064124 0.101910083 0)
(258.056673 0.103027947 0)
(258.049011 0.103845161 0)
(258.041168 0.10438755 0)
(258.033175 0.104678102 0)
(258.025056 0.104737505 0)
(258.016834 0.104584627 0)
(258.008527 0.104236907 0)
(258.000155 0.103710655 0)
(257.991732 0.103021255 0)
(257.983272 0.102183269 0)
(257.974786 0.101210467 0)
(257.966288 0.100115797 0)
(257.957785 0.098911306 0)
(257.949288 0.0976080922 0)
(257.940804 0.0962165509 0)
(257.93234 0.094746363 0)
(257.923904 0.0932063328 0)
(257.915501 0.091604345 0)
(257.907137 0.0899473698 0)
(257.898817 0.0882414882 0)
(257.890545 0.0864918903 0)
(257.882328 0.0847031023 0)
(257.874163 0.0828784383 0)
(257.866073 0.0810230139 0)
(257.858004 0.0791327505 0)
(257.850158 0.0772381817 0)
(257.84186 0.0752224402 0)
(257.835502 0.0735493236 0)
(257.820546 0.0703036542 0)
(257.615618 0.0148605128 0)
(257.605855 0.00766594565 0)
(257.600669 -0.0368150322 0)
(257.606202 -0.114912894 0)
(257.629999 -0.224457026 0)
(257.678412 -0.361665621 0)
(257.756504 -0.514390559 0)
(257.866455 -0.660247574 0)
(258.005516 -0.771086781 0)
(258.16516 -0.821130479 0)
(258.33221 -0.794809514 0)
(258.491395 -0.690821457 0)
(258.628257 -0.521424985 0)
(258.731399 -0.308336387 0)
(258.793228 -0.0774955279 0)
(258.8158 0.145305528 0)
(258.803525 0.340203088 0)
(258.760141 0.492879156 0)
(258.692084 0.595339626 0)
(258.608328 0.645511539 0)
(258.517975 0.645920595 0)
(258.429231 0.60262538 0)
(258.349251 0.524638905 0)
(258.283818 0.423895526 0)
(258.236863 0.315882766 0)
(258.209768 0.219719626 0)
(258.200362 0.156656476 0)
(258.201999 0.146759402 0)
(258.203629 0.204542601 0)
(258.191483 0.334889145 0)
(258.151697 0.530607307 0)
(258.072757 0.772912304 0)
(257.947465 1.03519639 0)
(257.774099 1.28920043 0)
(257.556335 1.51175853 0)
(257.301831 1.68992387 0)
(257.019906 1.82274706 0)
(256.719113 1.9192245 0)
(256.405475 1.9934666 0)
(256.081859 2.05919207 0)
(255.748497 2.12568699 0)
(255.404168 2.19640922 0)
(255.047463 2.27006376 0)
(254.677634 2.34297375 0)
(254.294877 2.41136141 0)
(253.900172 2.47265025 0)
(253.494941 2.52565704 0)
(253.080754 2.57009267 0)
(252.659183 2.60592782 0)
(252.231793 2.63298862 0)
(251.800189 2.65086128 0)
(251.366066 2.65899312 0)
(250.931223 2.65683675 0)
(250.497553 2.64394416 0)
(250.067012 2.61999443 0)
(249.641591 2.58478256 0)
(249.223292 2.5382006 0)
(248.814112 2.4802267 0)
(248.41602 2.41092257 0)
(248.030942 2.33043355 0)
(247.660742 2.23898716 0)
(247.3072 2.136889 0)
(246.972001 2.02451767 0)
(246.656715 1.90232095 0)
(246.362791 1.77081459 0)
(246.091553 1.63058248 0)
(245.844206 1.48227439 0)
(245.62186 1.32659781 0)
(245.425535 1.16430306 0)
(245.256171 0.996164088 0)
(245.114628 0.822959176 0)
(245.001665 0.645459583 0)
(244.917895 0.464433268 0)
(244.863808 0.280631328 0)
(244.839671 0.0951789412 0)
(244.846397 -0.0910580801 0)
(244.884162 -0.277444841 0)
(244.952338 -0.462907089 0)
(245.050897 -0.64653142 0)
(245.179335 -0.827382777 0)
(245.33702 -1.00443453 0)
(245.52321 -1.17662801 0)
(245.736953 -1.34288789 0)
(245.97707 -1.50212274 0)
(246.242194 -1.65323822 0)
(246.530774 -1.79515862 0)
(246.841083 -1.92685002 0)
(247.171226 -2.04734666 0)
(247.519156 -2.15578184 0)
(247.882699 -2.25141841 0)
(248.259575 -2.33367369 0)
(248.647424 -2.40213638 0)
(249.043841 -2.45657569 0)
(249.446408 -2.49694353 0)
(249.852727 -2.52337134 0)
(250.260456 -2.53616256 0)
(250.667339 -2.5357815 0)
(251.071236 -2.52283873 0)
(251.470147 -2.49807349 0)
(251.862235 -2.46233357 0)
(252.245838 -2.41655342 0)
(252.619485 -2.36173151 0)
(252.981898 -2.29890776 0)
(253.331995 -2.22914167 0)
(253.668886 -2.15349201 0)
(253.991873 -2.0729986 0)
(254.300431 -1.9886663 0)
(254.594208 -1.90145168 0)
(254.873002 -1.81225233 0)
(255.136753 -1.72189867 0)
(255.385525 -1.63114822 0)
(255.619494 -1.54068224 0)
(255.838931 -1.45110451 0)
(256.044187 -1.36294192 0)
(256.235682 -1.27664675 0)
(256.41389 -1.19260008 0)
(256.579327 -1.11111607 0)
(256.73254 -1.03244686 0)
(256.8741 -0.956787886 0)
(257.00459 -0.884283237 0)
(257.124599 -0.81503087 0)
(257.234716 -0.749087609 0)
(257.335523 -0.686473905 0)
(257.427593 -0.627178817 0)
(257.511488 -0.571165967 0)
(257.587755 -0.518380397 0)
(257.656921 -0.46875471 0)
(257.719484 -0.422212306 0)
(257.775909 -0.378667279 0)
(257.826628 -0.338023004 0)
(257.872044 -0.300171635 0)
(257.912533 -0.264994892 0)
(257.948448 -0.232365785 0)
(257.980121 -0.202151244 0)
(258.007868 -0.174214619 0)
(258.031984 -0.148417527 0)
(258.052751 -0.124621307 0)
(258.070432 -0.102688081 0)
(258.085273 -0.082481471 0)
(258.097509 -0.0638673939 0)
(258.107358 -0.0467158012 0)
(258.115019 -0.0309053616 0)
(258.120687 -0.0163236581 0)
(258.124438 -0.00289245516 0)
(258.126668 0.00945101748 0)
(258.127941 0.0208789239 0)
(258.128481 0.0314042175 0)
(258.128208 0.0409745448 0)
(258.127102 0.0496125158 0)
(258.125215 0.0573719396 0)
(258.122583 0.0643092507 0)
(258.119237 0.070481351 0)
(258.115223 0.0759414959 0)
(258.11059 0.0807426461 0)
(258.105394 0.0849382964 0)
(258.099689 0.088580767 0)
(258.093534 0.0917195028 0)
(258.086981 0.0943998333 0)
(258.080081 0.0966621369 0)
(258.072881 0.0985423276 0)
(258.065422 0.100072559 0)
(258.057741 0.10128156 0)
(258.049876 0.102195015 0)
(258.041854 0.102836027 0)
(258.033703 0.103225627 0)
(258.025446 0.103383253 0)
(258.017104 0.103327173 0)
(258.008691 0.103074772 0)
(258.000224 0.102642729 0)
(257.991715 0.102047056 0)
(257.983176 0.101303064 0)
(257.974617 0.100425267 0)
(257.966049 0.0994272762 0)
(257.95748 0.0983216864 0)
(257.94892 0.0971200312 0)
(257.940378 0.0958330398 0)
(257.93186 0.0944706404 0)
(257.923374 0.0930418159 0)
(257.914927 0.0915545865 0)
(257.906523 0.090016051 0)
(257.898166 0.0884324468 0)
(257.889862 0.0868091585 0)
(257.881615 0.0851509036 0)
(257.873422 0.0834609779 0)
(257.865305 0.0817436791 0)
(257.857207 0.0799930884 0)
(257.84933 0.0782349893 0)
(257.841027 0.0763637575 0)
(257.834649 0.0747905641 0)
(257.819959 0.0717762542 0)
(257.615119 0.0203584632 0)
(257.60372 0.012945047 0)
(257.595985 -0.0431290089 0)
(257.598169 -0.143683246 0)
(257.619364 -0.285705523 0)
(257.667167 -0.464148295 0)
(257.747528 -0.663361421 0)
(257.863315 -0.854571082 0)
(258.011967 -1.00144856 0)
(258.184448 -1.07049636 0)
(258.366391 -1.04120924 0)
(258.540892 -0.911458326 0)
(258.69177 -0.696698073 0)
(258.806379 -0.42477006 0)
(258.877857 -0.128824966 0)
(258.905404 0.159725844 0)
(258.890424 0.413087501 0)
(258.839063 0.611463136 0)
(258.761415 0.74481278 0)
(258.667676 0.810668589 0)
(258.567929 0.81226573 0)
(258.471726 0.757283587 0)
(258.387494 0.65712738 0)
(258.32199 0.527098184 0)
(258.279577 0.387127272 0)
(258.261268 0.261770318 0)
(258.263815 0.178298844 0)
(258.279459 0.162585567 0)
(258.296534 0.233451988 0)
(258.300579 0.397209525 0)
(258.276263 0.644633539 0)
(258.210295 0.951698547 0)
(258.094162 1.28441145 0)
(257.925649 1.60669605 0)
(257.708726 1.88899365 0)
(257.451902 2.11478023 0)
(257.165573 2.28281958 0)
(256.859279 2.4045566 0)
(256.539729 2.49798176 0)
(256.210116 2.58062834 0)
(255.870683 2.66441133 0)
(255.52003 2.75381644 0)
(255.156503 2.84723638 0)
(254.779134 2.93997536 0)
(254.38797 3.02716251 0)
(253.983918 3.1054351 0)
(253.56838 3.17320961 0)
(253.142942 3.23006294 0)
(252.709209 3.27592801 0)
(252.26879 3.31057283 0)
(251.82335 3.33347047 0)
(251.374658 3.34392131 0)
(250.924604 3.34123411 0)
(250.475185 3.32484592 0)
(250.028474 3.29435849 0)
(249.586583 3.24952466 0)
(249.151641 3.19022468 0)
(248.725768 3.11645266 0)
(248.311051 3.02831436 0)
(247.909526 2.92602942 0)
(247.523157 2.80993199 0)
(247.153823 2.68046741 0)
(246.803304 2.53818501 0)
(246.47328 2.38372681 0)
(246.165331 2.21781174 0)
(245.880933 2.04121677 0)
(245.621448 1.85475877 0)
(245.38811 1.65928195 0)
(245.182013 1.45565158 0)
(245.004112 1.24475143 0)
(244.855235 1.02748413 0)
(244.736081 0.804765964 0)
(244.647249 0.57753108 0)
(244.589238 0.346752518 0)
(244.562357 0.113375968 0)
(244.568333 -0.121486523 0)
(244.607281 -0.356454684 0)
(244.677865 -0.590254508 0)
(244.779932 -0.821737456 0)
(244.913241 -1.04967481 0)
(245.077336 -1.27273246 0)
(245.271545 -1.48954116 0)
(245.494966 -1.69871062 0)
(245.746457 -1.89882849 0)
(246.024631 -2.08848599 0)
(246.327867 -2.26631558 0)
(246.654322 -2.43102492 0)
(247.001939 -2.58142706 0)
(247.36848 -2.71646968 0)
(247.751551 -2.8352625 0)
(248.148632 -2.93710164 0)
(248.557114 -3.02148974 0)
(248.974333 -3.08815071 0)
(249.397616 -3.13703757 0)
(249.824313 -3.16833249 0)
(250.251844 -3.18243926 0)
(250.677732 -3.17996887 0)
(251.099641 -3.16171965 0)
(251.515402 -3.12865307 0)
(251.923038 -3.08186654 0)
(252.320782 -3.02256431 0)
(252.707087 -2.95202787 0)
(253.080632 -2.8715866 0)
(253.440319 -2.78258994 0)
(253.785275 -2.68638154 0)
(254.114836 -2.58427638 0)
(254.428537 -2.47754091 0)
(254.7261 -2.36737665 0)
(255.007412 -2.25490727 0)
(255.272512 -2.14116898 0)
(255.521571 -2.02710412 0)
(255.754874 -1.91355769 0)
(255.9728 -1.80127639 0)
(256.17581 -1.69090961 0)
(256.364429 -1.5830125 0)
(256.53923 -1.47805026 0)
(256.700824 -1.37640369 0)
(256.849847 -1.27837555 0)
(256.98695 -1.18419757 0)
(257.11279 -1.09403763 0)
(257.228024 -1.00800741 0)
(257.3333 -0.926170251 0)
(257.429254 -0.848549109 0)
(257.516499 -0.775133597 0)
(257.595624 -0.705884804 0)
(257.667181 -0.640737297 0)
(257.731694 -0.579599861 0)
(257.789662 -0.522357693 0)
(257.841564 -0.468876994 0)
(257.887856 -0.419010789 0)
(257.928974 -0.372603917 0)
(257.965325 -0.329495908 0)
(257.997289 -0.289522295 0)
(258.025218 -0.252515447 0)
(258.049439 -0.218305972 0)
(258.070255 -0.186724005 0)
(258.087946 -0.157600095 0)
(258.102776 -0.130765838 0)
(258.114992 -0.106054359 0)
(258.124831 -0.0833006471 0)
(258.13252 -0.0623420018 0)
(258.138294 -0.043018705 0)
(258.142389 -0.0251740059 0)
(258.145116 -0.00866703052 0)
(258.146748 0.00668965184 0)
(258.147126 0.0209218417 0)
(258.146132 0.0340060154 0)
(258.144052 0.0459722597 0)
(258.141148 0.0568408924 0)
(258.137553 0.0666307035 0)
(258.133347 0.0753749709 0)
(258.128586 0.0831266224 0)
(258.12331 0.0899555471 0)
(258.117564 0.0959373377 0)
(258.111389 0.101146828 0)
(258.104824 0.105654924 0)
(258.097908 0.109526858 0)
(258.090673 0.112821528 0)
(258.083157 0.115591371 0)
(258.075393 0.117883411 0)
(258.067414 0.119740281 0)
(258.059251 0.121200669 0)
(258.050933 0.122299671 0)
(258.042485 0.123069116 0)
(258.033933 0.123537881 0)
(258.025299 0.123732202 0)
(258.016602 0.123675986 0)
(258.00786 0.123391115 0)
(257.99909 0.122897738 0)
(257.990306 0.122214527 0)
(257.981519 0.121358883 0)
(257.972739 0.120347091 0)
(257.963976 0.119194427 0)
(257.955237 0.117915241 0)
(257.94653 0.116522991 0)
(257.937859 0.115030017 0)
(257.92923 0.113447525 0)
(257.920647 0.111785723 0)
(257.912116 0.110053853 0)
(257.90364 0.1082602 0)
(257.89522 0.106412117 0)
(257.886861 0.104515995 0)
(257.878566 0.102577478 0)
(257.87033 0.100600617 0)
(257.862174 0.0985910919 0)
(257.854037 0.0965435338 0)
(257.846124 0.0944903619 0)
(257.837741 0.0923121653 0)
(257.831314 0.0904839347 0)
(257.816146 0.0870402695 0)
(257.615465 0.0275403248 0)
(257.604396 0.0257480552 0)
(257.5966 -0.0346972167 0)
(257.599648 -0.148927879 0)
(257.622416 -0.31301059 0)
(257.672268 -0.520933354 0)
(257.755 -0.754838327 0)
(257.873257 -0.981738239 0)
(258.024334 -1.1595335 0)
(258.199224 -1.24888665 0)
(258.383774 -1.22510209 0)
(258.561401 -1.08462519 0)
(258.716197 -0.844473072 0)
(258.835553 -0.536444512 0)
(258.911765 -0.199232146 0)
(258.944367 0.12855978 0)
(258.936382 0.416315262 0)
(258.891981 0.643012456 0)
(258.820208 0.796605867 0)
(258.731265 0.873584475 0)
(258.63549 0.877332544 0)
(258.542603 0.816239492 0)
(258.461172 0.702797908 0)
(258.398167 0.553914001 0)
(258.358285 0.391832976 0)
(258.343014 0.244402644 0)
(258.3497 0.14316813 0)
(258.370823 0.118632745 0)
(258.394063 0.193632795 0)
(258.404129 0.376812211 0)
(258.38555 0.658527046 0)
(258.325208 1.01139061 0)
(258.21455 1.39580712 0)
(258.051041 1.76919153 0)
(257.838215 2.09621802 0)
(257.584192 2.35677983 0)
(257.29915 2.54895631 0)
(256.992598 2.68613735 0)
(256.671348 2.78979452 0)
(256.338742 2.88106145 0)
(255.99514 2.97442385 0)
(255.639201 3.07541676 0)
(255.269271 3.18215561 0)
(254.884361 3.28894557 0)
(254.484505 3.38983148 0)
(254.070614 3.4806776 0)
(253.644121 3.55952706 0)
(253.206663 3.62586152 0)
(252.759911 3.67961861 0)
(252.305554 3.72054716 0)
(251.84535 3.74803945 0)
(251.381173 3.76127534 0)
(250.915033 3.75944259 0)
(250.449057 3.74188472 0)
(249.985455 3.70814729 0)
(249.526488 3.65796252 0)
(249.074436 3.59122059 0)
(248.631573 3.50795237 0)
(248.200147 3.40832449 0)
(247.782355 3.29263775 0)
(247.380324 3.16132151 0)
(246.996082 3.01492191 0)
(246.631545 2.85408626 0)
(246.288481 2.67954748 0)
(245.968501 2.4921122 0)
(245.673048 2.29265267 0)
(245.403413 2.0820993 0)
(245.160765 1.86143045 0)
(244.946179 1.63165925 0)
(244.76064 1.39382028 0)
(244.60505 1.14895901 0)
(244.480207 0.898129159 0)
(244.386794 0.642402985 0)
(244.325309 0.38286541 0)
(244.29615 0.120708481 0)
(244.301251 -0.142727654 0)
(244.340672 -0.406353377 0)
(244.413299 -0.66898371 0)
(244.519068 -0.929241978 0)
(244.657687 -1.18567159 0)
(244.828669 -1.43676152 0)
(245.031322 -1.68094419 0)
(245.264734 -1.91660784 0)
(245.527751 -2.14211611 0)
(245.818964 -2.35583293 0)
(246.136706 -2.55615434 0)
(246.479059 -2.74154658 0)
(246.843858 -2.91058824 0)
(247.228714 -3.06201377 0)
(247.631039 -3.19475405 0)
(248.048085 -3.30797027 0)
(248.476984 -3.40107884 0)
(248.9148 -3.47376703 0)
(249.358579 -3.52599947 0)
(249.805398 -3.55801605 0)
(250.252415 -3.57032139 0)
(250.696917 -3.5636668 0)
(251.136355 -3.53902541 0)
(251.568384 -3.49756201 0)
(251.990886 -3.44059898 0)
(252.401985 -3.36958002 0)
(252.800069 -3.2860333 0)
(253.18378 -3.19153551 0)
(253.552025 -3.08767784 0)
(253.903957 -2.97603508 0)
(254.23897 -2.85813855 0)
(254.556675 -2.73545303 0)
(254.856887 -2.60935835 0)
(255.1396 -2.48113512 0)
(255.404969 -2.35195474 0)
(255.653282 -2.22287313 0)
(255.884946 -2.09482806 0)
(256.10046 -1.96863934 0)
(256.300401 -1.8450116 0)
(256.485403 -1.7245392 0)
(256.656146 -1.60771275 0)
(256.813332 -1.4949266 0)
(256.957684 -1.38648707 0)
(257.08993 -1.28262092 0)
(257.210791 -1.1834837 0)
(257.320979 -1.08916782 0)
(257.421184 -0.999709709 0)
(257.512076 -0.915095876 0)
(257.594297 -0.835268727 0)
(257.668474 -0.760133486 0)
(257.735215 -0.689567032 0)
(257.795102 -0.623427355 0)
(257.848681 -0.561561105 0)
(257.896457 -0.503807435 0)
(257.938886 -0.449998523 0)
(257.976387 -0.399959105 0)
(258.009347 -0.353507253 0)
(258.038125 -0.31045664 0)
(258.063059 -0.27061913 0)
(258.084465 -0.233806844 0)
(258.102639 -0.199833452 0)
(258.117858 -0.1685151 0)
(258.130385 -0.139672055 0)
(258.14046 -0.113130655 0)
(258.148313 -0.0887249095 0)
(258.154155 -0.066298225 0)
(258.15818 -0.0457070745 0)
(258.16056 -0.0268308877 0)
(258.161406 -0.00957465768 0)
(258.160963 0.00608815367 0)
(258.159615 0.0202142596 0)
(258.157541 0.0330036275 0)
(258.15471 0.0446437717 0)
(258.15109 0.0552400528 0)
(258.146749 0.0648548431 0)
(258.14176 0.0735345057 0)
(258.136201 0.0813223446 0)
(258.130141 0.0882681366 0)
(258.123637 0.0944243599 0)
(258.116737 0.0998437229 0)
(258.109487 0.104578778 0)
(258.101929 0.108681355 0)
(258.094102 0.112201884 0)
(258.086043 0.115188877 0)
(258.077788 0.117687877 0)
(258.069367 0.119740786 0)
(258.060811 0.121385888 0)
(258.052146 0.122658097 0)
(258.043394 0.123589277 0)
(258.034578 0.124208636 0)
(258.025713 0.124543094 0)
(258.016815 0.124617626 0)
(258.007896 0.124455526 0)
(257.998967 0.124078586 0)
(257.990038 0.123507192 0)
(257.981118 0.122760367 0)
(257.972214 0.121855791 0)
(257.963336 0.120809818 0)
(257.95449 0.119637506 0)
(257.945682 0.118352656 0)
(257.936919 0.116967835 0)
(257.928205 0.115494435 0)
(257.919546 0.113942748 0)
(257.910945 0.112322032 0)
(257.902405 0.110640568 0)
(257.89393 0.10890573 0)
(257.88552 0.107123972 0)
(257.877179 0.105301081 0)
(257.868902 0.103441309 0)
(257.860707 0.101550712 0)
(257.852537 0.0996246255 0)
(257.844591 0.0976946339 0)
(257.836212 0.0956531258 0)
(257.829778 0.0939301754 0)
(257.81497 0.0907726853 0)
(257.615253 0.0337152323 0)
(257.6038 0.0342421081 0)
(257.595813 -0.0339727476 0)
(257.598828 -0.166121539 0)
(257.622161 -0.357934063 0)
(257.673777 -0.602210122 0)
(257.759856 -0.878001002 0)
(257.883318 -1.14666612 0)
(258.041468 -1.35869352 0)
(258.224937 -1.46760146 0)
(258.418889 -1.44399772 0)
(258.605917 -1.28329732 0)
(258.769352 -1.00507347 0)
(258.895954 -0.646333385 0)
(258.977334 -0.25226812 0)
(259.012776 0.133020084 0)
(259.006936 0.472553966 0)
(258.963514 0.74011684 0)
(258.89165 0.921397238 0)
(258.802153 1.01240342 0)
(258.706115 1.01700658 0)
(258.613957 0.94487659 0)
(258.534844 0.81049159 0)
(258.476051 0.633534533 0)
(258.442232 0.440077159 0)
(258.434565 0.262922078 0)
(258.449832 0.139294264 0)
(258.480157 0.105290799 0)
(258.513589 0.188026281 0)
(258.534961 0.397727383 0)
(258.527887 0.723432102 0)
(258.478029 1.13345818 0)
(258.375942 1.58161739 0)
(258.218623 2.017953 0)
(258.009495 2.40078895 0)
(257.756825 2.7061606 0)
(257.471095 2.93142647 0)
(257.162171 3.0920171 0)
(256.837187 3.21302419 0)
(256.499718 3.31931939 0)
(256.150237 3.42808538 0)
(255.787411 3.54602242 0)
(255.409522 3.67106796 0)
(255.015486 3.79659663 0)
(254.605248 3.91559443 0)
(254.179663 4.02313424 0)
(253.740146 4.11683558 0)
(253.288353 4.19601986 0)
(252.826007 4.260564 0)
(252.354872 4.31013877 0)
(251.876804 4.34400376 0)
(251.393797 4.36117157 0)
(250.908 4.36066559 0)
(250.421699 4.34169527 0)
(249.937276 4.30371212 0)
(249.457177 4.24639223 0)
(248.983869 4.16960193 0)
(248.51981 4.07337653 0)
(248.06742 3.95791407 0)
(247.629046 3.82357461 0)
(247.206937 3.67087639 0)
(246.80322 3.50048624 0)
(246.419893 3.31320501 0)
(246.05882 3.10994937 0)
(245.721742 2.89173049 0)
(245.410278 2.65963112 0)
(245.12591 2.41478283 0)
(244.869965 2.15834552 0)
(244.643601 1.89149074 0)
(244.447811 1.61539002 0)
(244.283445 1.33121017 0)
(244.151237 1.04011905 0)
(244.051824 0.743292606 0)
(243.985851 0.441942081 0)
(243.953949 0.137328939 0)
(243.958302 -0.169319466 0)
(243.998584 -0.476536072 0)
(244.073486 -0.782783122 0)
(244.183156 -1.08649521 0)
(244.327514 -1.38601846 0)
(244.506239 -1.67958235 0)
(244.718779 -1.96530922 0)
(244.964311 -2.2412428 0)
(245.241704 -2.50538235 0)
(245.549516 -2.75572291 0)
(245.885983 -2.99030295 0)
(246.249031 -3.20725499 0)
(246.636284 -3.40485518 0)
(247.045096 -3.58157124 0)
(247.472585 -3.73610762 0)
(247.915678 -3.86744611 0)
(248.371164 -3.97487861 0)
(248.83575 -4.05802969 0)
(249.306124 -4.11686719 0)
(249.779012 -4.15170024 0)
(250.251244 -4.16316548 0)
(250.719805 -4.1522027 0)
(251.181883 -4.12002188 0)
(251.634909 -4.06806377 0)
(252.076588 -3.9979559 0)
(252.504917 -3.91146638 0)
(252.918199 -3.81045747 0)
(253.315045 -3.69684072 0)
(253.694363 -3.57253524 0)
(254.055349 -3.43943016 0)
(254.397471 -3.2993523 0)
(254.720442 -3.15403923 0)
(255.024198 -3.00511802 0)
(255.308869 -2.85408949 0)
(255.574756 -2.70231756 0)
(255.8223 -2.55102334 0)
(256.052059 -2.40128336 0)
(256.264686 -2.25403134 0)
(256.4609 -2.11006265 0)
(256.641473 -1.97004107 0)
(256.807213 -1.83450715 0)
(256.958942 -1.70388748 0)
(257.097492 -1.57850491 0)
(257.223687 -1.45858915 0)
(257.338339 -1.34428736 0)
(257.442244 -1.2356748 0)
(257.536173 -1.13276559 0)
(257.620867 -1.03552337 0)
(257.697037 -0.943871244 0)
(257.765343 -0.857699964 0)
(257.826397 -0.776873896 0)
(257.880755 -0.701234836 0)
(257.928939 -0.630604376 0)
(257.971442 -0.564786309 0)