/*--------------------------------*- C++ -*----------------------------------*\
| =========                 |                                                 |
| \\      /  F ield         | OpenFOAM: The Open Source CFD Toolbox           |
|  \\    /   O peration     | Version:  v2012                                 |
|   \\  /    A nd           | Website:  www.openfoam.com                      |
|    \\/     M anipulation  |                                                 |
\*---------------------------------------------------------------------------*/
FoamFile
{
    version     2.0;
    format      ascii;
    class       volVectorField;
    location    "2.04";
    object      HbyA;
}
// * * * * * * * * * * * * * * * * * * * * * * * * * * * * * * * * * * * * * //

dimensions      [0 1 -1 0 0 0 0];


internalField   nonuniform List<vector> 
28416
(
(0.0999994199 8.11735739e-07 0)
(0.0999975662 -3.87067417e-06 0)
(0.0999971015 -1.47878222e-05 0)
(0.100001036 -3.13558148e-05 0)
(0.100011736 -5.33852693e-05 0)
(0.100031057 -8.0177099e-05 0)
(0.100060478 -0.000109186789 0)
(0.100100426 -0.000135825353 0)
(0.100149591 -0.000154498756 0)
(0.100204787 -0.000160261584 0)
(0.100261425 -0.000150336056 0)
(0.100314376 -0.000124850672 0)
(0.100358905 -8.65803965e-05 0)
(0.1003913 -4.0004478e-05 0)
(0.10040935 1.00310709e-05 0)
(0.100414329 5.96218591e-05 0)
(0.100408722 0.000103275599 0)
(0.100393799 0.000137131333 0)
(0.100371537 0.000159322354 0)
(0.100344534 0.000169256571 0)
(0.100315303 0.000167467897 0)
(0.100286107 0.000155519289 0)
(0.100258842 0.000135844048 0)
(0.100235062 0.000111780036 0)
(0.100216016 8.7336736e-05 0)
(0.100202204 6.68672167e-05 0)
(0.100192818 5.46939245e-05 0)
(0.100185486 5.45532548e-05 0)
(0.10017646 6.89150012e-05 0)
(0.100161277 9.8338655e-05 0)
(0.10013564 0.00014105546 0)
(0.100096205 0.000193091328 0)
(0.100041131 0.000249053042 0)
(0.0999703244 0.000303355106 0)
(0.099885275 0.000351496976 0)
(0.0997885129 0.000390985181 0)
(0.0996828744 0.000421606087 0)
(0.0995708152 0.000444995198 0)
(0.0994539735 0.000463724322 0)
(0.0993330793 0.000480298475 0)
(0.0992081658 0.000496437172 0)
(0.0990789351 0.000512832398 0)
(0.0989451045 0.000529337972 0)
(0.098806617 0.000545378772 0)
(0.0986636891 0.000560340822 0)
(0.0985167479 0.000573793535 0)
(0.0983663303 0.00058552495 0)
(0.0982130057 0.000595462042 0)
(0.0980573431 0.000603568961 0)
(0.0978999128 0.000609783152 0)
(0.0977413018 0.000614001742 0)
(0.0975821259 0.000616099384 0)
(0.0974230317 0.000615952546 0)
(0.0972646922 0.000613455229 0)
(0.0971077975 0.000608523784 0)
(0.0969530471 0.000601095381 0)
(0.0968011427 0.00059112521 0)
(0.0966527822 0.000578584811 0)
(0.0965086536 0.000563461617 0)
(0.096369429 0.00054575899 0)
(0.096235757 0.000525496393 0)
(0.0961082565 0.000502709908 0)
(0.0959875104 0.000477453556 0)
(0.0958740611 0.000449801643 0)
(0.0957684085 0.000419851943 0)
(0.0956710103 0.000387728803 0)
(0.0955822862 0.000353584642 0)
(0.0955026242 0.000317598379 0)
(0.0954323871 0.000279970087 0)
(0.0953719182 0.000240912693 0)
(0.0953215476 0.00020064225 0)
(0.0952816153 0.000159363265 0)
(0.0952524478 0.000117232612 0)
(0.0952343596 7.43758633e-05 0)
(0.0952270387 3.06987407e-05 0)
(0.0952296815 -1.33771094e-05 0)
(0.0952428435 -5.70028601e-05 0)
(0.0952674234 -0.000100252065 0)
(0.0953031227 -0.000143155341 0)
(0.0953494943 -0.000185484469 0)
(0.0954063133 -0.000226995948 0)
(0.0954733102 -0.000267473778 0)
(0.0955500934 -0.000306692929 0)
(0.095636197 -0.000344411855 0)
(0.0957311032 -0.000380379687 0)
(0.0958342396 -0.000414340645 0)
(0.0959449805 -0.000446038089 0)
(0.096062657 -0.00047522343 0)
(0.096186567 -0.000501668668 0)
(0.0963159818 -0.000525178266 0)
(0.09645015 -0.00054559755 0)
(0.0965883019 -0.000562816879 0)
(0.0967296556 -0.000576772227 0)
(0.0968734242 -0.000587443547 0)
(0.0970188247 -0.000594852248 0)
(0.0971650875 -0.000599058529 0)
(0.0973114659 -0.000600158673 0)
(0.0974572448 -0.00059828211 0)
(0.0976017488 -0.000593588009 0)
(0.0977443479 -0.000586261305 0)
(0.0978844632 -0.000576508214 0)
(0.0980215705 -0.000564551407 0)
(0.098155203 -0.000550625026 0)
(0.0982849525 -0.000534969732 0)
(0.09841047 -0.000517827988 0)
(0.0985314649 -0.000499439756 0)
(0.0986477036 -0.000480038709 0)
(0.0987590068 -0.000459849017 0)
(0.098865247 -0.000439082709 0)
(0.0989663448 -0.000417937534 0)
(0.0990622649 -0.000396595321 0)
(0.0991530125 -0.000375220854 0)
(0.0992386292 -0.000353961285 0)
(0.0993191885 -0.000332946084 0)
(0.0993947922 -0.000312287487 0)
(0.099465566 -0.000292081274 0)
(0.0995316558 -0.00027240775 0)
(0.0995932238 -0.000253332871 0)
(0.0996504453 -0.00023490946 0)
(0.0997035052 -0.000217178431 0)
(0.0997525954 -0.00020016998 0)
(0.0997979119 -0.000183904797 0)
(0.0998396531 -0.00016839538 0)
(0.0998780178 -0.000153647494 0)
(0.0999132033 -0.000139661822 0)
(0.0999454035 -0.000126435743 0)
(0.099974806 -0.000113964711 0)
(0.10000159 -0.00010224249 0)
(0.100025923 -9.1260194e-05 0)
(0.100047963 -8.10048469e-05 0)
(0.100067857 -7.14582164e-05 0)
(0.100085743 -6.25963747e-05 0)
(0.100101752 -5.43902279e-05 0)
(0.100116009 -4.68068153e-05 0)
(0.100128632 -3.98107309e-05 0)
(0.100139732 -3.3365123e-05 0)
(0.100149417 -2.74321789e-05 0)
(0.100157785 -2.19731603e-05 0)
(0.100164928 -1.69478403e-05 0)
(0.100170931 -1.23132123e-05 0)
(0.100175874 -8.02117576e-06 0)
(0.100179834 -4.01587393e-06 0)
(0.100182926 -2.32595641e-07 0)
(0.100185219 3.38184377e-06 0)
(0.100186878 6.95408283e-06 0)
(0.100188144 1.04208612e-05 0)
(0.100189098 1.3669621e-05 0)
(0.100189746 1.66432299e-05 0)
(0.100190085 1.93163947e-05 0)
(0.100190113 2.16810385e-05 0)
(0.100189825 2.37461858e-05 0)
(0.100189224 2.55323396e-05 0)
(0.100188321 2.70653604e-05 0)
(0.100187131 2.83725556e-05 0)
(0.100185674 2.94801481e-05 0)
(0.100183974 3.04118967e-05 0)
(0.100182054 3.11886233e-05 0)
(0.100179939 3.18282373e-05 0)
(0.10017765 3.23459608e-05 0)
(0.100175211 3.27545651e-05 0)
(0.10017264 3.3064602e-05 0)
(0.100169958 3.32846753e-05 0)
(0.10016718 3.34217669e-05 0)
(0.10016432 3.34816095e-05 0)
(0.100161393 3.34690751e-05 0)
(0.100158407 3.3388541e-05 0)
(0.100155371 3.32441941e-05 0)
(0.100152295 3.30402473e-05 0)
(0.100149184 3.27810566e-05 0)
(0.100146043 3.24711432e-05 0)
(0.100142879 3.21151391e-05 0)
(0.100139695 3.17176888e-05 0)
(0.100136497 3.12833345e-05 0)
(0.100133289 3.08164156e-05 0)
(0.100130075 3.03209854e-05 0)
(0.100126858 2.98006751e-05 0)
(0.100123643 2.92586705e-05 0)
(0.100120433 2.86977641e-05 0)
(0.100117232 2.81203876e-05 0)
(0.100114041 2.75286309e-05 0)
(0.100110864 2.69242659e-05 0)
(0.100107702 2.63087663e-05 0)
(0.100104559 2.56833928e-05 0)
(0.100101434 2.50491047e-05 0)
(0.100098335 2.44075359e-05 0)
(0.100095242 2.37579416e-05 0)
(0.100092234 2.31104294e-05 0)
(0.100089064 2.24254705e-05 0)
(0.100086635 2.1859937e-05 0)
(0.100082155 2.07287635e-05 0)
(0.0999992623 3.50330302e-06 0)
(0.0999962168 -1.44685459e-06 0)
(0.0999932721 -1.86974084e-05 0)
(0.0999939339 -4.67837224e-05 0)
(0.100001618 -8.49674391e-05 0)
(0.100018984 -0.000131946919 0)
(0.1000482 -0.000183429881 0)
(0.100090331 -0.00023166774 0)
(0.1001444 -0.000267138671 0)
(0.100207005 -0.000281318719 0)
(0.100272803 -0.000269246093 0)
(0.100335575 -0.000230806729 0)
(0.100389406 -0.000170429917 0)
(0.100429753 -9.56359577e-05 0)
(0.100454563 -1.50895852e-05 0)
(0.100462625 6.28107557e-05 0)
(0.100454375 0.000130734677 0)
(0.10043318 0.00018382068 0)
(0.10040286 0.000219337814 0)
(0.100367067 0.000236490979 0)
(0.100329337 0.000236154853 0)
(0.100292909 0.000220532904 0)
(0.100260652 0.000192949457 0)
(0.100234874 0.00015792984 0)
(0.100216976 0.000121168737 0)
(0.100207175 8.93408565e-05 0)
(0.100204225 6.96035468e-05 0)
(0.100205279 6.85643928e-05 0)
(0.100206039 9.08278049e-05 0)
(0.100201216 0.000137620846 0)
(0.100185336 0.000206096143 0)
(0.100153783 0.000289657458 0)
(0.100103747 0.000379327891 0)
(0.100034732 0.000465828137 0)
(0.0999484765 0.000541742857 0)
(0.0998483028 0.000603077527 0)
(0.0997381085 0.000649701168 0)
(0.0996213508 0.000684587053 0)
(0.0995003514 0.000712232483 0)
(0.0993761003 0.000736931811 0)
(0.0992485238 0.000761550569 0)
(0.0991170099 0.000787134523 0)
(0.0989809296 0.000813272096 0)
(0.0988399683 0.000838834961 0)
(0.0986942143 0.000862673043 0)
(0.0985440712 0.000884002174 0)
(0.0983901064 0.000902454521 0)
(0.0982329291 0.000917924647 0)
(0.0980731358 0.000930379612 0)
(0.0979113109 0.000939740697 0)
(0.0977480513 0.000945857883 0)
(0.0975839871 0.000948541852 0)
(0.0974197882 0.000947607619 0)
(0.0972561583 0.000942902464 0)
(0.0970938237 0.000934314017 0)
(0.0969335225 0.000921766957 0)
(0.0967759956 0.000905217693 0)
(0.0966219801 0.000884651612 0)
(0.0964722022 0.000860082995 0)
(0.0963273715 0.000831555914 0)
(0.0961881741 0.000799144745 0)
(0.0960552672 0.000762953855 0)
(0.0959292745 0.000723116565 0)
(0.0958107829 0.00067979353 0)
(0.0957003414 0.000633170476 0)
(0.0955984602 0.000583455307 0)
(0.0955056102 0.000530874992 0)
(0.095422223 0.000475672735 0)
(0.0953486912 0.000418105276 0)
(0.0952853701 0.000358439695 0)
(0.0952325788 0.000296948375 0)
(0.0951905918 0.000233898289 0)
(0.0951596496 0.000169520936 0)
(0.0951397814 0.00010400327 0)
(0.0951310376 3.74673367e-05 0)
(0.0951337659 -2.95170217e-05 0)
(0.095147961 -9.61374052e-05 0)
(0.0951734663 -0.000162252284 0)
(0.0952102995 -0.000227699308 0)
(0.0952583221 -0.000292111516 0)
(0.0953173019 -0.000355115599 0)
(0.0953869543 -0.000416357169 0)
(0.0954669152 -0.000475467098 0)
(0.0955567362 -0.000532062503 0)
(0.0956558951 -0.000585761213 0)
(0.0957638029 -0.000636192465 0)
(0.0958798076 -0.000683004568 0)
(0.0960032006 -0.000725873194 0)
(0.0961332262 -0.000764510266 0)
(0.0962690887 -0.000798671664 0)
(0.0964099595 -0.000828163362 0)
(0.0965549856 -0.000852846317 0)
(0.0967032985 -0.000872640003 0)
(0.0968540248 -0.00088752424 0)
(0.0970062977 -0.000897539152 0)
(0.0971592678 -0.00090278327 0)
(0.0973121148 -0.000903410015 0)
(0.0974640575 -0.000899622835 0)
(0.0976143623 -0.00089166929 0)
(0.0977623508 -0.000879834395 0)
(0.0979074054 -0.000864433442 0)
(0.0980489732 -0.000845804582 0)
(0.0981865691 -0.000824301392 0)
(0.0983197761 -0.000800285655 0)
(0.0984482453 -0.000774120561 0)
(0.0985716945 -0.000746164511 0)
(0.0986899057 -0.000716765646 0)
(0.0988027213 -0.000686257173 0)
(0.0989100406 -0.000654953557 0)
(0.0990118147 -0.000623147548 0)
(0.0991080419 -0.000591108038 0)
(0.0991987625 -0.000559078679 0)
(0.0992840536 -0.000527277206 0)
(0.0993640245 -0.000495895354 0)
(0.0994388116 -0.000465099334 0)
(0.0995085742 -0.000435030765 0)
(0.0995734898 -0.000405807949 0)
(0.0996337503 -0.000377527441 0)
(0.099689558 -0.000350265816 0)
(0.0997411225 -0.000324081539 0)
(0.0997886579 -0.000299016923 0)
(0.0998323796 -0.000275100124 0)
(0.0998725024 -0.000252347103 0)
(0.0999092382 -0.000230763459 0)
(0.0999427935 -0.000210345894 0)
(0.0999733683 -0.000191083225 0)
(0.100001155 -0.000172957166 0)
(0.100026338 -0.000155943142 0)
(0.100049093 -0.000140011271 0)
(0.100069588 -0.00012512737 0)
(0.100087981 -0.000111253642 0)
(0.100104421 -9.83489504e-05 0)
(0.100119047 -8.63690848e-05 0)
(0.100131991 -7.52672962e-05 0)
(0.100143377 -6.49949044e-05 0)
(0.10015332 -5.55017951e-05 0)
(0.10016193 -4.67367583e-05 0)
(0.100169309 -3.86475768e-05 0)
(0.100175555 -3.1180706e-05 0)
(0.100180762 -2.42807456e-05 0)
(0.100185025 -1.78895639e-05 0)
(0.10018844 -1.19469506e-05 0)
(0.10019112 -6.39545884e-06 0)
(0.100193206 -1.20809464e-06 0)
(0.10019473 3.63695516e-06 0)
(0.100195658 8.122271e-06 0)
(0.100196076 1.22702902e-05 0)
(0.100196091 1.60864595e-05 0)
(0.100195758 1.95604902e-05 0)
(0.10019511 2.26934921e-05 0)
(0.100194179 2.54958729e-05 0)
(0.100192987 2.79828239e-05 0)
(0.10019155 3.0173431e-05 0)
(0.100189886 3.20890481e-05 0)
(0.100188012 3.37516977e-05 0)
(0.100185943 3.51831642e-05 0)
(0.100183697 3.6404406e-05 0)
(0.100181292 3.74351554e-05 0)
(0.100178745 3.82937223e-05 0)
(0.100176074 3.89966658e-05 0)
(0.100173293 3.95586508e-05 0)
(0.100170418 3.99925812e-05 0)
(0.100167462 4.03098084e-05 0)
(0.100164437 4.05203567e-05 0)
(0.100161354 4.06331489e-05 0)
(0.100158224 4.0656216e-05 0)
(0.100155053 4.05968817e-05 0)
(0.100151852 4.04619154e-05 0)
(0.100148625 4.02576483e-05 0)
(0.100145378 3.99900512e-05 0)
(0.100142118 3.9664777e-05 0)
(0.100138848 3.92871712e-05 0)
(0.100135574 3.88622594e-05 0)
(0.100132298 3.83947179e-05 0)
(0.100129025 3.78888546e-05 0)
(0.100125756 3.73487047e-05 0)
(0.100122496 3.67780262e-05 0)
(0.100119246 3.61802364e-05 0)
(0.10011601 3.5558396e-05 0)
(0.100112788 3.49152106e-05 0)
(0.100109584 3.42530407e-05 0)
(0.100106398 3.35739009e-05 0)
(0.100103233 3.28795482e-05 0)
(0.100100089 3.2171269e-05 0)
(0.100096974 3.1451049e-05 0)
(0.100093866 3.0717305e-05 0)
(0.100090846 2.99818893e-05 0)
(0.100087649 2.91994372e-05 0)
(0.100085205 2.85499827e-05 0)
(0.100080586 2.72904197e-05 0)
(0.099999391 5.76844774e-06 0)
(0.0999967943 2.97574755e-06 0)
(0.0999947093 -1.42907565e-05 0)
(0.0999966518 -4.46064752e-05 0)
(0.100005565 -8.71286406e-05 0)
(0.100023906 -0.000140388975 0)
(0.100053658 -0.000199671613 0)
(0.100095714 -0.000256287512 0)
(0.10014908 -0.000299310003 0)
(0.100210529 -0.000318733633 0)
(0.100275013 -0.000308515669 0)
(0.100336647 -0.000268150932 0)
(0.100389825 -0.000202397694 0)
(0.1004301 -0.000119684949 0)
(0.100454485 -3.00810549e-05 0)
(0.100463014 5.6402396e-05 0)
(0.100457817 0.000132054072 0)
(0.100440724 0.000191316712 0)
(0.100414237 0.00023108776 0)
(0.10038182 0.000250562785 0)
(0.100346977 0.000250722138 0)
(0.10031286 0.000233917328 0)
(0.100282203 0.000203646595 0)
(0.10025721 0.00016454218 0)
(0.100239358 0.000122615668 0)
(0.100229136 8.528844e-05 0)
(0.10022566 6.08093596e-05 0)
(0.100226319 5.69676245e-05 0)
(0.100226818 7.93972342e-05 0)
(0.100221836 0.000129993463 0)
(0.100206044 0.0002059644 0)
(0.100175046 0.000300018206 0)
(0.100126127 0.000401826802 0)
(0.100058688 0.000500421511 0)
(0.0999742016 0.000586810848 0)
(0.0998756498 0.000655969857 0)
(0.0997666291 0.000707530139 0)
(0.0996504171 0.00074498357 0)
(0.0995293031 0.000773806962 0)
(0.0994043617 0.000799325161 0)
(0.0992756595 0.000825142594 0)
(0.0991427175 0.000852601509 0)
(0.0990049945 0.000881199315 0)
(0.0988622099 0.000909508853 0)
(0.0987144477 0.000936063723 0)
(0.0985620913 0.000959863784 0)
(0.0984056918 0.00098044966 0)
(0.0982458552 0.000997709026 0)
(0.0980831879 0.00101163039 0)
(0.0979182929 0.00102214613 0)
(0.0977517901 0.00102909548 0)
(0.0975843344 0.00103226374 0)
(0.0974166211 0.00103143824 0)
(0.0972493808 0.00102644489 0)
(0.0970833686 0.00101715889 0)
(0.096919353 0.00100350047 0)
(0.0967581067 0.000985427494 0)
(0.0966003999 0.000962931281 0)
(0.0964469923 0.000936035568 0)
(0.0962986267 0.000904796588 0)
(0.0961560215 0.000869302482 0)
(0.0960198635 0.000829671721 0)
(0.0958908017 0.000786051139 0)
(0.0957694415 0.000738614454 0)
(0.0956563406 0.000687561798 0)
(0.0955520089 0.000633119788 0)
(0.0954569111 0.000575540651 0)
(0.0953714732 0.000515099054 0)
(0.095296088 0.000452086321 0)
(0.0952311172 0.000386802984 0)
(0.0951768905 0.00031955129 0)
(0.0951337 0.00025063078 0)
(0.0951017811 0.000180339746 0)
(0.095081321 0.000108969952 0)
(0.0950724218 3.69584406e-05 0)
(0.0950750233 -3.53582867e-05 0)
(0.0950891779 -0.000107732577 0)
(0.0951150685 -0.000179746966 0)
(0.0951526862 -0.000251046628 0)
(0.0952018384 -0.000321268354 0)
(0.0952622823 -0.000390013401 0)
(0.0953337345 -0.000456870626 0)
(0.0954158293 -0.000521422442 0)
(0.0955081142 -0.000583245057 0)
(0.095610063 -0.000641913588 0)
(0.0957210801 -0.000697010436 0)
(0.0958405011 -0.000748134262 0)
(0.0959675961 -0.000794910237 0)
(0.0961015776 -0.000837002027 0)
(0.0962416077 -0.000874123641 0)
(0.0963868078 -0.000906049073 0)
(0.0965362688 -0.000932618886 0)
(0.0966890632 -0.000953743731 0)
(0.096844258 -0.000969405195 0)
(0.0970009284 -0.000979654556 0)
(0.09715817 -0.000984609861 0)
(0.0973151117 -0.000984451585 0)
(0.0974709269 -0.000979416971 0)
(0.097624843 -0.000969793177 0)
(0.0977761493 -0.000955909469 0)
(0.0979242036 -0.000938128733 0)
(0.0980684359 -0.00091683868 0)
(0.0982083514 -0.000892443067 0)
(0.0983435306 -0.000865353236 0)
(0.0984736288 -0.000835980227 0)
(0.0985983738 -0.000804727683 0)
(0.0987175621 -0.000771985669 0)
(0.098831055 -0.000738125494 0)
(0.0989387735 -0.000703495551 0)
(0.0990406924 -0.000668418152 0)
(0.0991368352 -0.000633187305 0)
(0.0992272682 -0.000598067414 0)
(0.0993120945 -0.000563292802 0)
(0.0993914488 -0.000529067946 0)
(0.0994654918 -0.00049556836 0)
(0.0995344055 -0.000462941926 0)
(0.0995983881 -0.000431310547 0)
(0.0996576506 -0.000400772058 0)
(0.0997124123 -0.000371402287 0)
(0.099762898 -0.000343257132 0)
(0.0998093346 -0.000316374587 0)
(0.0998519489 -0.000290776684 0)
(0.0998909654 -0.000266471338 0)
(0.0999266053 -0.000243454284 0)
(0.0999590852 -0.000221711381 0)
(0.0999886163 -0.000201221283 0)
(0.100015402 -0.000181957816 0)
(0.100039634 -0.000163891235 0)
(0.100061492 -0.000146988185 0)
(0.100081144 -0.000131211152 0)
(0.100098744 -0.000116518267 0)
(0.100114438 -0.000102863612 0)
(0.100128362 -9.01978891e-05 0)
(0.100140646 -7.84694419e-05 0)
(0.10015141 -6.76252232e-05 0)
(0.100160769 -5.76115153e-05 0)
(0.100168832 -4.83744919e-05 0)
(0.1001757 -3.98606317e-05 0)
(0.10018147 -3.20169955e-05 0)
(0.100186232 -2.47915354e-05 0)
(0.100190069 -1.81337696e-05 0)
(0.10019306 -1.19966005e-05 0)
(0.10019528 -6.33639064e-06 0)
(0.100196758 -1.12277099e-06 0)
(0.100197608 3.66862267e-06 0)
(0.100198071 8.10461624e-06 0)
(0.100198254 1.21902386e-05 0)
(0.100198126 1.59051684e-05 0)
(0.100197679 1.92581828e-05 0)
(0.100196932 2.22701697e-05 0)
(0.1001959 2.49630358e-05 0)
(0.100194595 2.73588692e-05 0)
(0.100193034 2.94783424e-05 0)
(0.100191237 3.13420133e-05 0)
(0.100189223 3.29706473e-05 0)
(0.100187015 3.43845536e-05 0)
(0.100184633 3.56029251e-05 0)
(0.1001821 3.66433578e-05 0)
(0.100179435 3.7521525e-05 0)
(0.100176654 3.82513677e-05 0)
(0.100173774 3.88453665e-05 0)
(0.10017081 3.93146736e-05 0)
(0.100167775 3.96692584e-05 0)
(0.10016468 3.99180894e-05 0)
(0.100161537 4.00693292e-05 0)
(0.100158353 4.01305239e-05 0)
(0.100155136 4.01087637e-05 0)
(0.100151893 4.00107978e-05 0)
(0.100148629 3.98430995e-05 0)
(0.10014535 3.96118849e-05 0)
(0.100142059 3.93230968e-05 0)
(0.100138761 3.89823695e-05 0)
(0.10013546 3.85949859e-05 0)
(0.100132159 3.81658353e-05 0)
(0.100128861 3.76993945e-05 0)
(0.10012557 3.71998282e-05 0)
(0.100122289 3.66709904e-05 0)
(0.100119021 3.61163679e-05 0)
(0.100115767 3.55390739e-05 0)
(0.10011253 3.49418638e-05 0)
(0.100109312 3.43271591e-05 0)
(0.100106114 3.36970496e-05 0)
(0.100102937 3.30533667e-05 0)
(0.100099783 3.23973897e-05 0)
(0.100096657 3.17307867e-05 0)
(0.100093538 3.10512604e-05 0)
(0.100090506 3.03688191e-05 0)
(0.100087308 2.96424622e-05 0)
(0.100084856 2.90317956e-05 0)
(0.10008034 2.78620473e-05 0)
(0.0999991862 7.90260201e-06 0)
(0.0999959525 5.02497519e-06 0)
(0.0999929074 -1.67417011e-05 0)
(0.0999935212 -5.57744403e-05 0)
(0.100001374 -0.000110903717 0)
(0.100019407 -0.000180169783 0)
(0.10004995 -0.00025749724 0)
(0.100094172 -0.000331716766 0)
(0.100151167 -0.000388727094 0)
(0.100217526 -0.000415526566 0)
(0.100287751 -0.000404156799 0)
(0.100355329 -0.000353792005 0)
(0.100413986 -0.000270430831 0)
(0.100458782 -0.000164879563 0)
(0.100486998 -5.00051811e-05 0)
(0.100497579 6.19997126e-05 0)
(0.100491243 0.000160344581 0)
(0.100470997 0.000237345594 0)
(0.100440759 0.000289106321 0)
(0.100404465 0.00031466918 0)
(0.100365996 0.000315289909 0)
(0.100329019 0.000293949054 0)
(0.100296758 0.00025507328 0)
(0.100271785 0.000204601535 0)
(0.10025574 0.000150270229 0)
(0.100248959 0.000101611063 0)
(0.100250132 6.92101702e-05 0)
(0.100256207 6.31107573e-05 0)
(0.100262644 9.06187677e-05 0)
(0.100263852 0.000154183769 0)
(0.100253937 0.000250224504 0)
(0.100227826 0.000369414689 0)
(0.100182312 0.000498559545 0)
(0.10011662 0.00062365639 0)
(0.10003235 0.00073323274 0)
(0.0999328199 0.000820875474 0)
(0.0998220415 0.000886105044 0)
(0.0997036684 0.00093336365 0)
(0.0995802474 0.000969633992 0)
(0.09945297 0.00100172139 0)
(0.0993219021 0.00103425058 0)
(0.0991864935 0.00106896276 0)
(0.0990461084 0.00110523416 0)
(0.0989003842 0.00114124218 0)
(0.0987493497 0.00117509617 0)
(0.0985933615 0.00120549084 0)
(0.098432964 0.00123181142 0)
(0.0982687691 0.00125389358 0)
(0.0981013956 0.00127171111 0)
(0.0979314644 0.00128517382 0)
(0.0977596183 0.00129407698 0)
(0.0975865408 0.00129814881 0)
(0.0974129625 0.00129712076 0)
(0.0972396546 0.00129077405 0)
(0.0970674168 0.00127895381 0)
(0.0968970651 0.00126156382 0)
(0.0967294206 0.0012385573 0)
(0.0965653008 0.00120993169 0)
(0.096405511 0.00117572775 0)
(0.0962508361 0.00113603048 0)
(0.0961020336 0.00109096935 0)
(0.0959598272 0.00104071701 0)
(0.095824903 0.000985486533 0)
(0.0956979083 0.000925526977 0)
(0.0955794514 0.000861117318 0)
(0.0954701006 0.000792559097 0)
(0.09537038 0.000720169393 0)
(0.0952807643 0.000644275931 0)
(0.0952016745 0.000565214661 0)
(0.0951334777 0.000483328754 0)
(0.0950764908 0.000398968744 0)
(0.0950309827 0.000312490501 0)
(0.0949971834 0.000224256868 0)
(0.0949752826 0.00013464582 0)
(0.094965398 4.4024739e-05 0)
(0.0949676785 -4.71741084e-05 0)
(0.0949822149 -0.000138413114 0)
(0.09500896 -0.00022919714 0)
(0.0950478569 -0.000319080014 0)
(0.0950988149 -0.000407584458 0)
(0.0951616604 -0.000494192307 0)
(0.0952361366 -0.000578371803 0)
(0.0953218984 -0.00065958306 0)
(0.0954185068 -0.000737277686 0)
(0.0955254298 -0.000810908733 0)
(0.0956420447 -0.000879945327 0)
(0.0957676417 -0.000943885849 0)
(0.0959014305 -0.00100226966 0)
(0.0960425493 -0.00105468843 0)
(0.0961900756 -0.0011007968 0)
(0.0963430391 -0.00114032181 0)
(0.0965004338 -0.00117307071 0)
(0.0966612334 -0.00119893666 0)
(0.0968244058 -0.00121790177 0)
(0.0969889292 -0.00123003711 0)
(0.0971538072 -0.00123549975 0)
(0.0973180835 -0.00123452719 0)
(0.0974808555 -0.00122742962 0)
(0.0976412848 -0.00121458051 0)
(0.0977986069 -0.00119640608 0)
(0.0979521379 -0.00117337396 0)
(0.0981012786 -0.00114598174 0)
(0.0982455167 -0.00111474556 0)
(0.0983844271 -0.00108018928 0)
(0.0985176697 -0.00104283453 0)
(0.098644986 -0.00100319175 0)
(0.0987661946 -0.000961752522 0)
(0.0988811854 -0.000918983212 0)
(0.0989899132 -0.000875319949 0)
(0.0990923908 -0.000831164902 0)
(0.0991886822 -0.000786883804 0)
(0.0992788955 -0.000742804592 0)
(0.099363176 -0.000699217037 0)
(0.0994416999 -0.000656373161 0)
(0.0995146682 -0.000614488384 0)
(0.0995823013 -0.000573743231 0)
(0.0996448341 -0.000534285458 0)
(0.0997025113 -0.000496232544 0)
(0.0997555835 -0.000459674391 0)
(0.0998043037 -0.000424676129 0)
(0.0998489249 -0.000391281069 0)
(0.0998896971 -0.000359513774 0)
(0.0999268652 -0.000329383126 0)
(0.0999606664 -0.000300885074 0)
(0.0999913268 -0.000274004492 0)
(0.10001906 -0.000248715968 0)
(0.100044069 -0.000224984082 0)
(0.100066546 -0.00020276426 0)
(0.100086675 -0.000182004556 0)
(0.100104634 -0.000162647913 0)
(0.100120589 -0.000144634096 0)
(0.1001347 -0.000127900809 0)
(0.100147112 -0.000112384211 0)
(0.100157962 -9.80192277e-05 0)
(0.100167376 -8.47401043e-05 0)
(0.100175471 -7.24809031e-05 0)
(0.100182356 -6.11758476e-05 0)
(0.100188133 -5.07595669e-05 0)
(0.100192897 -4.11672851e-05 0)
(0.100196741 -3.23349494e-05 0)
(0.100199751 -2.41994037e-05 0)
(0.10020202 -1.66986504e-05 0)
(0.100203638 -9.77184324e-06 0)
(0.100204725 -3.36429919e-06 0)
(0.100205354 2.59673591e-06 0)
(0.10020547 8.12127179e-06 0)
(0.100205058 1.32001775e-05 0)
(0.100204231 1.78451329e-05 0)
(0.100203088 2.20640258e-05 0)
(0.100201681 2.58641505e-05 0)
(0.100200041 2.9258425e-05 0)
(0.100198189 3.22673949e-05 0)
(0.10019614 3.49181892e-05 0)
(0.100193911 3.72401512e-05 0)
(0.100191519 3.92623291e-05 0)
(0.100188978 4.10122473e-05 0)
(0.100186302 4.25152264e-05 0)
(0.100183506 4.37941289e-05 0)
(0.100180602 4.48693095e-05 0)
(0.100177603 4.57590218e-05 0)
(0.100174522 4.64798139e-05 0)
(0.100171371 4.70467041e-05 0)
(0.100168161 4.74733151e-05 0)
(0.100164902 4.77720016e-05 0)
(0.100161604 4.79539732e-05 0)
(0.100158274 4.80294138e-05 0)
(0.100154921 4.8007603e-05 0)
(0.100151551 4.7897035e-05 0)
(0.10014817 4.77055308e-05 0)
(0.100144784 4.74403384e-05 0)
(0.100141398 4.71082125e-05 0)
(0.100138015 4.6715474e-05 0)
(0.100134638 4.62680527e-05 0)
(0.100131272 4.57715189e-05 0)
(0.100127917 4.52310966e-05 0)
(0.100124577 4.46515753e-05 0)
(0.100121253 4.40373056e-05 0)
(0.100117947 4.33922495e-05 0)
(0.100114661 4.27199947e-05 0)
(0.100111397 4.20237567e-05 0)
(0.100108154 4.13063902e-05 0)
(0.100104935 4.05703758e-05 0)
(0.100101741 3.98179045e-05 0)
(0.10009857 3.90505487e-05 0)
(0.100095429 3.82705127e-05 0)
(0.100092296 3.74757131e-05 0)
(0.100089249 3.66787339e-05 0)
(0.10008602 3.58332229e-05 0)
(0.10008355 3.51235591e-05 0)
(0.100078849 3.37872168e-05 0)
(0.0999993043 1.06904037e-05 0)
(0.099996191 9.99481178e-06 0)
(0.0999931511 -1.34686717e-05 0)
(0.0999940602 -5.78102627e-05 0)
(0.100002462 -0.000121502741 0)
(0.10002121 -0.000202211843 0)
(0.100052579 -0.000293005067 0)
(0.100097664 -0.000381077534 0)
(0.100155521 -0.0004500881 0)
(0.100222764 -0.000484768581 0)
(0.100293989 -0.000475534409 0)
(0.10036281 -0.000421006504 0)
(0.100423052 -0.000327789926 0)
(0.10046978 -0.000208226657 0)
(0.100499936 -7.73345229e-05 0)
(0.100512622 4.99021498e-05 0)
(0.100508882 0.00016159715 0)
(0.10049124 0.00024959104 0)
(0.100463211 0.000309209177 0)
(0.100428738 0.000339089234 0)
(0.100391798 0.000340544878 0)
(0.10035612 0.000316832226 0)
(0.100324979 0.000272799912 0)
(0.100301024 0.000215009811 0)
(0.100286015 0.000152096411 0)
(0.100280464 9.48692606e-05 0)
(0.100283277 5.55733923e-05 0)
(0.100291483 4.60495264e-05 0)
(0.100300282 7.51620363e-05 0)
(0.100303756 0.000146265774 0)
(0.10029596 0.000255616472 0)
(0.100271899 0.000392582894 0)
(0.100228364 0.000541795434 0)
(0.100164473 0.000686725139 0)
(0.10008167 0.000813661387 0)
(0.0999831306 0.000914800803 0)
(0.0998727852 0.000989398395 0)
(0.0997542703 0.00104265132 0)
(0.0996301643 0.00108289331 0)
(0.0995017077 0.00111832699 0)
(0.0993690061 0.00115457481 0)
(0.0992315284 0.00119378525 0)
(0.099088641 0.00123522692 0)
(0.0989399749 0.00127668951 0)
(0.0987855553 0.00131586159 0)
(0.0986257429 0.00135113781 0)
(0.0984610947 0.00138175854 0)
(0.0982922424 0.00140752244 0)
(0.0981198307 0.00142840514 0)
(0.0979445109 0.00144430896 0)
(0.0977669617 0.00145499779 0)
(0.0975879078 0.00146015307 0)
(0.0974081258 0.00145945921 0)
(0.0972284372 0.0014526611 0)
(0.0970496957 0.00143958202 0)
(0.0968727735 0.00142011767 0)
(0.0966985503 0.00139422508 0)
(0.0965279035 0.00136191588 0)
(0.0963616999 0.00132325442 0)
(0.0962007866 0.00127835713 0)
(0.0960459828 0.00122739039 0)
(0.0958980711 0.00117056592 0)
(0.0957577884 0.00110813476 0)
(0.0956258165 0.00104038124 0)
(0.095502775 0.00096761833 0)
(0.0953892192 0.000890184536 0)
(0.0952856457 0.000808440984 0)
(0.0951925041 0.000722767467 0)
(0.0951102066 0.000633557335 0)
(0.0950391328 0.000541212308 0)
(0.094979628 0.000446138375 0)
(0.0949319988 0.00034874478 0)
(0.0948965065 0.000249448009 0)
(0.0948733419 0.000148669497 0)
(0.0948626555 4.68723187e-05 0)
(0.0948645703 -5.54225471e-05 0)
(0.0948792105 -0.00015778989 0)
(0.0949066655 -0.000259769062 0)
(0.0949469134 -0.000360825265 0)
(0.0949998436 -0.000460392711 0)
(0.0950652708 -0.000557884514 0)
(0.0951429316 -0.000652691896 0)
(0.0952324771 -0.000744188977 0)
(0.0953334645 -0.0008317404 0)
(0.0954453532 -0.000914710983 0)
(0.0955675038 -0.000992478097 0)
(0.0956991785 -0.00106444643 0)
(0.0958395451 -0.00113006439 0)
(0.0959876839 -0.00118884091 0)
(0.0961425987 -0.0012403613 0)
(0.0963032308 -0.00128430028 0)
(0.0964684753 -0.00132043172 0)
(0.0966372003 -0.00134863463 0)
(0.0968082659 -0.00136889573 0)
(0.0969805442 -0.00138130855 0)
(0.0971529386 -0.0013860694 0)
(0.0973244005 -0.00138347029 0)
(0.0974939457 -0.0013738893 0)
(0.0976606669 -0.00135777888 0)
(0.0978237444 -0.00133565258 0)
(0.0979824528 -0.00130807099 0)
(0.0981361662 -0.00127562746 0)
(0.098284359 -0.00123893411 0)
(0.0984266055 -0.00119860864 0)
(0.0985625766 -0.00115526236 0)
(0.0986920349 -0.00110948966 0)
(0.098814828 -0.0010618591 0)
(0.0989308818 -0.00101290621 0)
(0.0990401914 -0.000963128017 0)
(0.0991428135 -0.000912979143 0)
(0.099238858 -0.000862869387 0)
(0.099328479 -0.000813162667 0)
(0.0994118679 -0.000764177128 0)
(0.0994892455 -0.000716186208 0)
(0.0995608555 -0.000669420544 0)
(0.0996269579 -0.000624070506 0)
(0.0996878241 -0.00058028911 0)
(0.0997437316 -0.000538195208 0)
(0.0997949603 -0.00049787677 0)
(0.0998417885 -0.000459394137 0)
(0.0998844902 -0.000422783145 0)
(0.0999233317 -0.000388057902 0)
(0.0999585706 -0.000355213151 0)
(0.0999904559 -0.000324226514 0)
(0.100019229 -0.000295061184 0)
(0.100045124 -0.000267669356 0)
(0.100068366 -0.000241995896 0)
(0.100089166 -0.000217981269 0)
(0.100107719 -0.000195563033 0)
(0.100124202 -0.000174676039 0)
(0.100138775 -0.000155252252 0)
(0.10015159 -0.00013722105 0)
(0.100162784 -0.000120510105 0)
(0.100172489 -0.000105046386 0)
(0.100180826 -9.07569653e-05 0)
(0.100187911 -7.75695134e-05 0)
(0.100193851 -6.54126641e-05 0)
(0.100198746 -5.421665e-05 0)
(0.100202691 -4.39140617e-05 0)
(0.100205774 -3.44404663e-05 0)
(0.100208078 -2.57350795e-05 0)
(0.100209677 -1.77421887e-05 0)
(0.100210637 -1.04149927e-05 0)
(0.100211003 -3.71661303e-06 0)
(0.100210835 2.36325026e-06 0)
(0.100210282 7.84660551e-06 0)
(0.100209452 1.28110743e-05 0)
(0.100208333 1.73294453e-05 0)
(0.100206912 2.14426177e-05 0)
(0.100205216 2.51748031e-05 0)
(0.100203273 2.85439988e-05 0)
(0.100201111 3.15670148e-05 0)
(0.100198758 3.42631731e-05 0)
(0.100196236 3.66528444e-05 0)
(0.100193564 3.87564888e-05 0)
(0.100190757 4.05945055e-05 0)
(0.100187834 4.21870135e-05 0)
(0.100184808 4.35535883e-05 0)
(0.100181694 4.47130606e-05 0)
(0.100178505 4.56831087e-05 0)
(0.100175254 4.64799977e-05 0)