/*--------------------------------*- C++ -*----------------------------------*\
| =========                 |                                                 |
| \\      /  F ield         | OpenFOAM: The Open Source CFD Toolbox           |
|  \\    /   O peration     | Version:  v2012                                 |
|   \\  /    A nd           | Website:  www.openfoam.com                      |
|    \\/     M anipulation  |                                                 |
\*---------------------------------------------------------------------------*/
FoamFile
{
    version     2.0;
    format      ascii;
    class       volScalarField;
    location    "2.04";
    object      rAU;
}
// * * * * * * * * * * * * * * * * * * * * * * * * * * * * * * * * * * * * * //

dimensions      [0 0 1 0 0 0 0];


internalField   nonuniform List<scalar> 
28416
(
0.000388176329
0.000388180824
0.000388180531
0.00038817997
0.000388179087
0.000388177854
0.0003881763
0.000388174543
0.000388172768
0.000388171186
0.000388169986
0.000388169293
0.000388169153
0.000388169538
0.000388169899
0.000388167408
0.000388165437
0.000388164179
0.000388163672
0.000388163876
0.000388164704
0.000388166025
0.000388167666
0.000388169431
0.000388171098
0.000388172449
0.000388173298
0.000388173523
0.000388173095
0.000388172094
0.000388170714
0.000388169233
0.000388167959
0.00038816717
0.000388167048
0.000388167652
0.000388168921
0.000388170714
0.00038817286
0.000388175217
0.000388177698
0.000388180275
0.000388182963
0.000388185792
0.000388188787
0.00038819196
0.000388195306
0.000388198816
0.000388202475
0.000388206272
0.000388210196
0.000388214238
0.000388218385
0.000388222627
0.000388226949
0.000388231335
0.00038823577
0.000388240236
0.000388244717
0.000388249193
0.000388253648
0.000388258064
0.000388262421
0.000388266703
0.00038827089
0.000388274966
0.000388278913
0.00038828271
0.000388286339
0.000388289783
0.00038829302
0.000388296027
0.000388298794
0.000388301332
0.000388303642
0.000388304577
0.000388303108
0.000388301358
0.000388299333
0.000388297043
0.000388294502
0.000388291726
0.000388288728
0.000388285528
0.000388282145
0.000388278602
0.000388274919
0.000388271121
0.000388267232
0.000388263275
0.000388259273
0.000388255249
0.000388251225
0.000388247222
0.000388243259
0.000388239356
0.000388235527
0.000388231791
0.000388228158
0.000388224641
0.00038822125
0.000388217993
0.000388214875
0.000388211901
0.000388209076
0.000388206398
0.00038820387
0.000388201489
0.000388199254
0.000388197161
0.000388195209
0.000388193391
0.000388191702
0.00038819014
0.000388188696
0.000388187366
0.000388186145
0.000388185025
0.000388184001
0.000388183069
0.00038818222
0.000388181451
0.000388180755
0.000388180128
0.000388179564
0.000388179058
0.000388178607
0.000388178204
0.000388177846
0.00038817753
0.000388177252
0.000388177009
0.000388176799
0.000388176619
0.000388176466
0.00038817634
0.000388176238
0.000388176158
0.0003881761
0.000388176061
0.000388176041
0.000388176038
0.000388176055
0.000388175911
0.000388175699
0.000388175502
0.000388175325
0.000388175168
0.000388175034
0.000388174922
0.000388174831
0.000388174763
0.000388174713
0.000388174681
0.000388174666
0.000388174666
0.000388174678
0.000388174702
0.000388174736
0.000388174779
0.00038817483
0.000388174889
0.000388174954
0.000388175025
0.000388175101
0.000388175182
0.000388175266
0.000388175356
0.000388175448
0.000388175543
0.000388175642
0.000388175742
0.000388175845
0.000388175949
0.000388176056
0.000388176162
0.000388176271
0.00038817638
0.00038817649
0.000388176599
0.00038817671
0.00038817682
0.00038817693
0.000388177041
0.000388177151
0.000388177261
0.00038817737
0.000388177481
0.000388177584
0.000388182208
0.000388172918
0.000388177522
0.000388177239
0.000388176613
0.000388175596
0.000388174146
0.000388172297
0.00038817019
0.000388168056
0.000388166162
0.000388164744
0.00038816396
0.000388163863
0.000388164408
0.000388165472
0.000388164153
0.000388162911
0.000388162315
0.000388162334
0.000388162887
0.000388163864
0.000388165135
0.000388166551
0.000388167962
0.000388169216
0.000388170164
0.000388170686
0.000388170717
0.000388170269
0.000388169448
0.000388168447
0.000388167519
0.000388166922
0.00038816687
0.00038816748
0.000388168759
0.000388170617
0.000388172905
0.000388175468
0.000388178186
0.000388180996
0.000388183887
0.000388186882
0.000388190012
0.0003881933
0.000388196754
0.000388200367
0.000388204127
0.000388208019
0.000388212027
0.000388216142
0.000388220348
0.000388224635
0.000388228986
0.000388233384
0.000388237814
0.000388242256
0.000388246691
0.000388251101
0.000388255466
0.000388259767
0.000388263985
0.000388268101
0.000388272096
0.000388275953
0.000388279653
0.00038828318
0.000388286517
0.000388289648
0.000388292559
0.000388295234
0.00038829766
0.000388299828
0.000388301734
0.000388303361
0.000388303459
0.000388301679
0.000388299613
0.000388297267
0.000388294651
0.000388291779
0.000388288667
0.000388285331
0.000388281791
0.000388278069
0.000388274188
0.000388270173
0.00038826605
0.000388261845
0.000388257583
0.000388253291
0.000388248994
0.000388244716
0.00038824048
0.000388236309
0.000388232221
0.000388228235
0.000388224367
0.00038822063
0.000388217036
0.000388213595
0.000388210312
0.000388207194
0.000388204243
0.000388201461
0.000388198847
0.0003881964
0.000388194116
0.000388191991
0.00038819002
0.000388188199
0.000388186519
0.000388184976
0.000388183562
0.000388182269
0.000388181091
0.000388180022
0.000388179053
0.000388178178
0.000388177391
0.000388176685
0.000388176053
0.00038817549
0.00038817499
0.000388174549
0.00038817416
0.000388173821
0.000388173526
0.00038817327
0.000388173051
0.000388172866
0.00038817271
0.000388172582
0.00038817248
0.000388172399
0.00038817234
0.000388172301
0.000388172278
0.000388172272
0.000388172281
0.000388172304
0.000388172338
0.000388172384
0.000388172413
0.000388172296
0.000388172176
0.000388172076
0.000388171994
0.00038817193
0.000388171881
0.000388171846
0.000388171826
0.000388171818
0.000388171821
0.000388171836
0.000388171861
0.000388171894
0.000388171935
0.000388171984
0.000388172039
0.0003881721
0.000388172166
0.000388172236
0.000388172311
0.00038817239
0.000388172471
0.000388172555
0.000388172642
0.00038817273
0.00038817282
0.000388172913
0.000388173007
0.000388173101
0.000388173197
0.000388173293
0.00038817339
0.000388173487
0.000388173585
0.000388173683
0.00038817378
0.000388173878
0.000388173976
0.000388174073
0.00038817417
0.000388174267
0.000388174363
0.000388174459
0.000388174555
0.000388174647
0.000388179249
0.00038817286
0.000388177491
0.000388177211
0.000388176414
0.000388175154
0.000388173404
0.000388171225
0.000388168805
0.00038816643
0.000388164417
0.000388163029
0.000388162425
0.00038816263
0.000388163557
0.000388165043
0.000388164145
0.000388162473
0.000388161499
0.000388161227
0.00038816159
0.000388162477
0.000388163751
0.000388165256
0.000388166825
0.000388168276
0.000388169422
0.000388170097
0.000388170187
0.000388169671
0.000388168638
0.000388167289
0.000388165907
0.000388164802
0.000388164243
0.000388164405
0.000388165329
0.000388166935
0.000388169061
0.000388171521
0.000388174164
0.000388176903
0.000388179717
0.000388182628
0.000388185677
0.000388188896
0.000388192298
0.000388195881
0.000388199631
0.000388203534
0.000388207575
0.000388211742
0.000388216023
0.000388220405
0.000388224873
0.00038822941
0.000388233999
0.000388238619
0.000388243252
0.000388247877
0.000388252473
0.000388257019
0.000388261496
0.000388265881
0.000388270157
0.000388274301
0.000388278297
0.000388282126
0.000388285771
0.000388289214
0.00038829244
0.000388295433
0.000388298178
0.000388300663
0.000388302877
0.000388304809
0.000388304768
0.000388302686
0.000388300309
0.000388297645
0.000388294708
0.000388291511
0.000388288075
0.000388284416
0.000388280558
0.000388276524
0.000388272339
0.00038826803
0.000388263625
0.000388259151
0.000388254638
0.000388250112
0.000388245603
0.000388241134
0.000388236731
0.000388232418
0.000388228214
0.000388224138
0.000388220206
0.000388216431
0.000388212823
0.000388209392
0.000388206142
0.000388203077
0.000388200198
0.000388197506
0.000388194995
0.000388192665
0.000388190509
0.000388188521
0.000388186694
0.000388185021
0.000388183494
0.000388182104
0.000388180845
0.000388179706
0.00038817868
0.000388177759
0.000388176936
0.000388176201
0.00038817555
0.000388174974
0.000388174468
0.000388174024
0.000388173639
0.000388173305
0.000388173018
0.000388172774
0.000388172568
0.000388172396
0.000388172256
0.000388172143
0.000388172055
0.00038817199
0.000388171946
0.00038817192
0.000388171913
0.00038817192
0.000388171941
0.000388171975
0.000388172021
0.000388172078
0.000388172145
0.000388172221
0.000388172307
0.000388172244
0.000388172124
0.000388172022
0.000388171935
0.000388171866
0.000388171812
0.000388171772
0.000388171748
0.000388171737
0.000388171738
0.000388171752
0.000388171775
0.000388171807
0.000388171848
0.000388171897
0.000388171952
0.000388172012
0.000388172079
0.000388172149
0.000388172225
0.000388172303
0.000388172385
0.000388172469
0.000388172556
0.000388172645
0.000388172736
0.000388172829
0.000388172923
0.000388173018
0.000388173115
0.000388173212
0.000388173309
0.000388173408
0.000388173506
0.000388173605
0.000388173703
0.000388173802
0.0003881739
0.000388173998
0.000388174096
0.000388174194
0.000388174291
0.000388174388
0.000388174485
0.000388174577
0.000388179178
0.000388172816
0.00038817744
0.000388177274
0.000388176366
0.000388174913
0.000388172885
0.000388170357
0.000388167554
0.000388164815
0.00038816252
0.000388160979
0.000388160374
0.000388160727
0.000388161923
0.000388163743
0.000388163311
0.000388161298
0.000388160102
0.000388159721
0.000388160075
0.000388161038
0.000388162452
0.000388164134
0.000388165889
0.000388167508
0.000388168773
0.000388169484
0.000388169494
0.000388168756
0.000388167351
0.000388165506
0.000388163553
0.000388161866
0.000388160778
0.00038816051
0.000388161126
0.000388162538
0.000388164558
0.000388166963
0.000388169568
0.000388172264
0.000388175022
0.000388177873
0.000388180864
0.000388184039
0.000388187419
0.000388191003
0.000388194781
0.000388198736
0.000388202854
0.000388207123
0.000388211531
0.000388216066
0.000388220711
0.00038822545
0.000388230264
0.000388235133
0.000388240034
0.000388244947
0.000388249849
0.000388254718
0.00038825953
0.000388264263
0.000388268896
0.000388273405
0.00038827777
0.000388281971
0.000388285987
0.000388289799
0.000388293391
0.000388296746
0.000388299847
0.000388302683
0.00038830524
0.000388307503
0.000388307338
0.000388304937
0.000388302227
0.000388299221
0.000388295931
0.000388292373
0.000388288567
0.000388284533
0.000388280296
0.000388275879
0.000388271314
0.000388266628
0.000388261853
0.000388257021
0.000388252163
0.00038824731
0.000388242495
0.000388237744
0.000388233084
0.000388228543
0.000388224141
0.000388219898
0.00038821583
0.000388211951
0.00038820827
0.000388204796
0.000388201533
0.000388198481
0.00038819564
0.000388193009
0.000388190581
0.000388188352
0.000388186313
0.000388184455
0.000388182769
0.000388181247
0.000388179878
0.00038817865
0.000388177556
0.000388176583
0.000388175724
0.000388174968
0.000388174307
0.000388173732
0.000388173236
0.00038817281
0.000388172448
0.000388172143
0.00038817189
0.000388171683
0.000388171517
0.000388171388
0.000388171291
0.000388171223
0.000388171181
0.000388171162
0.000388171162
0.00038817118
0.000388171214
0.00038817126
0.000388171319
0.000388171388
0.000388171466
0.000388171553
0.000388171647
0.000388171747
0.000388171852
0.000388171961
0.000388172072
0.000388172056
0.000388171936
0.000388171838
0.000388171759
0.0003881717
0.000388171656
0.000388171626
0.00038817161
0.000388171606
0.000388171614
0.000388171632
0.00038817166
0.000388171696
0.000388171741
0.000388171792
0.000388171851
0.000388171914
0.000388171984
0.000388172057
0.000388172136
0.000388172217
0.000388172302
0.000388172389
0.000388172479
0.000388172571
0.000388172664
0.000388172759
0.000388172856
0.000388172953
0.000388173051
0.00038817315
0.000388173249
0.000388173349
0.000388173449
0.000388173549
0.000388173648
0.000388173748
0.000388173848
0.000388173947
0.000388174046
0.000388174145
0.000388174242
0.00038817434
0.000388174439
0.000388174533
0.000388179138
0.000388172753
0.000388177347
0.000388177294
0.00038817623
0.000388174537
0.000388172194
0.000388169302
0.000388166132
0.000388163083
0.000388160592
0.000388159007
0.000388158517
0.000388159122
0.000388160663
0.000388162877
0.000388162999
0.000388160524
0.00038815895
0.000388158298
0.000388158494
0.000388159405
0.000388160863
0.00038816267
0.000388164608
0.000388166438
0.000388167897
0.000388168738
0.000388168766
0.000388167905
0.000388166227
0.000388163968
0.000388161497
0.000388159242
0.000388157601
0.000388156851
0.00038815709
0.00038815824
0.000388160092
0.000388162392
0.000388164922
0.000388167548
0.000388170234
0.000388173009
0.000388175933
0.000388179057
0.000388182409
0.000388185992
0.000388189795
0.000388193801
0.000388197997
0.00038820237
0.000388206907
0.000388211597
0.000388216424
0.000388221369
0.000388226413
0.000388231534
0.000388236709
0.000388241913
0.000388247123
0.000388252313
0.000388257458
0.000388262533
0.000388267515
0.000388272379
0.000388277102
0.000388281665
0.000388286045
0.000388290224
0.000388294183
0.000388297903
0.000388301367
0.00038830456
0.000388307467
0.000388310071
0.000388309801
0.000388307071
0.000388304016
0.000388300651
0.00038829699
0.000388293051
0.000388288856
0.000388284428
0.000388279793
0.00038827498
0.00038827002
0.000388264946
0.000388259792
0.000388254593
0.000388249385
0.000388244202
0.000388239079
0.000388234047
0.000388229136
0.000388224375
0.000388219785
0.000388215387
0.0003882112
0.000388207235
0.000388203502
0.000388200008
0.000388196755
0.000388193742
0.000388190965
0.000388188422
0.000388186103
0.000388183999
0.000388182101
0.000388180397
0.000388178875
0.000388177523
0.000388176329
0.00038817528
0.000388174366
0.000388173573
0.000388172891
0.00038817231
0.000388171819
0.000388171408
0.000388171072
0.000388170799
0.000388170585
0.00038817042
0.000388170302
0.000388170222
0.000388170176
0.00038817016
0.000388170169
0.0003881702
0.00038817025
0.000388170315
0.000388170394
0.000388170485
0.000388170586
0.000388170696
0.000388170813
0.000388170936
0.000388171064
0.000388171196
0.000388171332
0.000388171471
0.000388171611
0.000388171753
0.000388171897
0.000388171914
0.000388171798
0.000388171702
0.000388171623
0.000388171564
0.000388171521
0.000388171493
0.00038817148
0.000388171479
0.000388171489
0.000388171511
0.000388171542
0.000388171582
0.00038817163
0.000388171685
0.000388171746
0.000388171812
0.000388171884
0.00038817196
0.00038817204
0.000388172124
0.00038817221
0.000388172299
0.00038817239
0.000388172484
0.000388172578
0.000388172675
0.000388172773
0.000388172871
0.000388172971
0.000388173072
0.000388173172
0.000388173273
0.000388173374
0.000388173476
0.000388173576
0.000388173678
0.000388173778
0.000388173878
0.000388173979
0.000388174078
0.000388174177
0.000388174276
0.000388174375
0.000388174469
0.000388179072
0.000388172699
0.000388177265
0.000388177326
0.000388176112
0.00038817418
0.000388171515
0.000388168238
0.000388164663
0.00038816125
0.000388158497
0.000388156797
0.000388156359
0.00038815717
0.000388159038
0.000388161652
0.000388162442
0.000388159546
0.000388157644
0.000388156771
0.000388156856
0.000388157756
0.000388159288
0.000388161232
0.000388163347
0.000388165362
0.000388166983
0.000388167919
0.000388167934
0.000388166913
0.000388164911
0.000388162181
0.000388159136
0.000388156271
0.000388154049
0.000388152802
0.000388152662
0.000388153551
0.000388155241
0.000388157444
0.000388159906
0.000388162469
0.000388165087
0.000388167792
0.000388170653
0.000388173731
0.000388177061
0.000388180651
0.000388184491
0.000388188565
0.000388192857
0.000388197355
0.000388202048
0.000388206923
0.000388211964
0.000388217152
0.000388222465
0.00038822788
0.000388233371
0.000388238913
0.000388244479
0.000388250042
0.000388255573
0.000388261047
0.000388266437
0.000388271715
0.000388276857
0.000388281838
0.000388286634
0.000388291224
0.000388295589
0.000388299708
0.000388303564
0.000388307141
0.00038831042
0.000388313387
0.000388313029
0.000388309952
0.000388306534
0.000388302791
0.000388298737
0.000388294389
0.000388289771
0.000388284908
0.000388279828
0.000388274564
0.00038826915
0.000388263623
0.000388258023
0.00038825239
0.000388246763
0.000388241182
0.000388235687
0.000388230312
0.00038822509
0.000388220054
0.000388215228
0.000388210633
0.000388206288
0.000388202206
0.000388198394
0.000388194859
0.000388191599
0.000388188613
0.000388185894
0.000388183435
0.000388181224
0.000388179251
0.000388177499
0.000388175956
0.000388174607
0.000388173437
0.000388172431
0.000388171573
0.000388170852
0.000388170252
0.000388169761
0.000388169369
0.000388169062
0.00038816883
0.000388168667
0.000388168561
0.000388168505
0.000388168492
0.000388168517
0.000388168572
0.000388168654
0.000388168759
0.000388168882
0.00038816902
0.000388169172
0.000388169334
0.000388169503
0.000388169679
0.000388169859
0.000388170041
0.000388170226
0.000388170411
0.000388170596
0.000388170782
0.000388170966
0.000388171148
0.000388171329
0.000388171508
0.000388171683
0.000388171692
0.000388171584
0.000388171498
0.000388171429
0.00038817138
0.000388171345
0.000388171325
0.000388171319
0.000388171326
0.000388171342
0.00038817137
0.000388171407
0.000388171451
0.000388171504
0.000388171564
0.000388171629
0.0003881717
0.000388171776
0.000388171856
0.00038817194
0.000388172027
0.000388172118
0.00038817221
0.000388172305
0.000388172402
0.000388172499
0.000388172599
0.0003881727
0.0003881728
0.000388172903
0.000388173005
0.000388173107
0.00038817321
0.000388173313
0.000388173415
0.000388173517
0.00038817362
0.000388173722
0.000388173823
0.000388173925
0.000388174025
0.000388174125
0.000388174225
0.000388174325
0.000388174421
0.000388179027
0.000388172638
0.000388177177
0.000388177356
0.000388175981
0.000388173792
0.000388170786
0.000388167108
0.000388163121
0.000388159349
0.000388156351
0.000388154564
0.000388154208
0.000388155253
0.000388157463
0.000388160467
0.000388161995
0.000388158626
0.000388156346
0.000388155207
0.000388155141
0.000388156002
0.000388157591
0.000388159673
0.000388161977
0.0003881642
0.000388166001
0.000388167042
0.000388167046
0.000388165866
0.000388163554
0.000388160372
0.000388156767
0.000388153291
0.000388150474
0.000388148705
0.000388148151
0.000388148745
0.000388150239
0.000388152314
0.000388154682
0.000388157161
0.000388159695
0.000388162317
0.000388165106
0.000388168133
0.000388171442
0.000388175042
0.000388178925
0.000388183074
0.000388187474
0.000388192112
0.000388196978
0.000388202058
0.000388207336
0.00038821279
0.000388218399
0.000388224135
0.000388229972
0.000388235881
0.000388241831
0.000388247793
0.000388253734
0.000388259625
0.000388265436
0.000388271138
0.000388276704
0.000388282109
0.000388287329
0.00038829234
0.000388297123
0.000388301656
0.000388305919
0.000388309897
0.00038831357
0.000388316921
0.000388316515
0.000388313081
0.000388309285
0.00038830514
0.000388300665
0.000388295878
0.000388290805
0.000388285473
0.000388279913
0.00038827416
0.000388268255
0.000388262238
0.000388256154
0.000388250048
0.000388243965
0.00038823795
0.000388232049
0.000388226301
0.000388220744
0.000388215412
0.000388210333
0.00038820553
0.000388201023
0.000388196822
0.000388192936
0.000388189369
0.000388186117
0.000388183174
0.000388180532
0.000388178179
0.0003881761
0.000388174279
0.000388172699
0.000388171342
0.000388170189
0.000388169224
0.000388168427
0.000388167782
0.000388167274
0.000388166885
0.000388166601
0.000388166411
0.000388166301
0.000388166259
0.000388166278
0.000388166346
0.000388166457
0.000388166602
0.000388166778
0.000388166976
0.000388167193
0.000388167425
0.000388167667
0.000388167915
0.000388168169
0.000388168425
0.000388168681
0.000388168937
0.000388169191
0.000388169442
0.00038816969
0.000388169934
0.000388170173
0.000388170408
0.000388170637
0.000388170861
0.000388171079
0.000388171292
0.000388171498
0.000388171468
0.000388171367
0.000388171288
0.000388171228
0.000388171186
0.00038817116
0.000388171148
0.00038817115
0.000388171163
0.000388171187
0.000388171222
0.000388171265
0.000388171316
0.000388171374
0.000388171439
0.00038817151
0.000388171585
0.000388171665
0.000388171749
0.000388171837
0.000388171928
0.000388172021
0.000388172116
0.000388172213
0.000388172312
0.000388172412
0.000388172514
0.000388172617
0.00038817272
0.000388172824
0.000388172928
0.000388173032
0.000388173137
0.000388173241
0.000388173346
0.000388173449
0.000388173553
0.000388173657
0.000388173759
0.000388173862
0.000388173964
0.000388174065
0.000388174166
0.000388174266
0.000388174363
0.000388178967
0.000388172577
0.000388177087
0.000388177383
0.000388175837
0.000388173381
0.000388170019
0.000388165923
0.000388161502
0.000388157346
0.000388154078
0.00038815218
0.000388151886
0.000388153148
0.000388155695
0.000388159108
0.000388161513
0.00038815768
0.000388155022
0.000388153615
0.000388153397
0.000388154215
0.000388155857
0.000388158065
0.000388160545
0.000388162961
0.000388164935
0.000388166084
0.000388165815
0.000388164746
0.0003881621
0.000388158427
0.000388154222
0.000388150097
0.000388146652
0.000388144335
0.000388143348
0.00038814363
0.000388144916
0.000388146853
0.00038814912
0.000388151508
0.000388153951
0.000388156485
0.000388159197
0.00038816217
0.000388165454
0.000388169065
0.000388172995
0.000388177228
0.000388181748
0.000388186544
0.000388191603
0.000388196912
0.000388202454
0.000388208207
0.000388214146
0.000388220241
0.000388226463
0.000388232779
0.000388239157
0.000388245562
0.00038825196
0.000388258318
0.000388264603
0.000388270784
0.000388276829
0.000388282711
0.000388288402
0.000388293878
0.000388299118
0.000388304099
0.000388308801
0.000388313208
0.000388317298
0.000388321053
0.000388320634
0.000388316823
0.000388312626
0.000388308059
0.000388303137
0.000388297879
0.000388292312
0.000388286465
0.000388280372
0.000388274073
0.000388267614
0.000388261039
0.000388254401
0.000388247752
0.000388241144
0.00038823463
0.000388228261
0.000388222082
0.000388216138
0.000388210465
0.000388205095
0.000388200053
0.000388195359
0.000388191024
0.000388187054
0.000388183451
0.000388180207
0.000388177315
0.00038817476
0.000388172528
0.000388170596
0.000388168948
0.000388167559
0.000388166408
0.000388165473
0.000388164734
0.000388164168
0.000388163755
0.000388163478
0.000388163318
0.000388163259
0.000388163288
0.00038816339
0.000388163553
0.000388163768
0.000388164023
0.000388164311
0.000388164624
0.000388164958
0.000388165304
0.000388165658
0.000388166019
0.000388166382
0.000388166743
0.000388167103
0.000388167458
0.000388167806
0.000388168148
0.000388168482
0.000388168806
0.000388169122
0.000388169429
0.000388169725
0.000388170012
0.000388170289
0.000388170557
0.000388170814
0.000388171063
0.000388171275
0.000388171197
0.00038817111
0.000388171044
0.000388170996
0.000388170966
0.00038817095
0.000388170948
0.00038817096
0.000388170983
0.000388171015
0.000388171058
0.000388171109
0.000388171166
0.000388171232
0.000388171303
0.000388171379
0.00038817146
0.000388171546
0.000388171635
0.000388171728
0.000388171823
0.000388171921
0.00038817202
0.000388172122
0.000388172225
0.000388172329
0.000388172434
0.00038817254
0.000388172645
0.000388172752
0.000388172858
0.000388172964
0.000388173071
0.000388173178
0.000388173283
0.000388173389
0.000388173494
0.000388173599
0.000388173702
0.000388173806
0.000388173909
0.000388174011
0.000388174113
0.000388174215
0.000388174312
0.00038817892
0.000388172515
0.000388176995
0.000388177406
0.000388175682
0.000388172944
0.000388169209
0.000388164677
0.000388159808
0.000388155259
0.000388151716
0.000388149707
0.000388149479
0.000388150968
0.000388153858
0.000388157674
0.000388161049
0.000388156725
0.000388153672
0.000388151982
0.000388151601
0.000388152371
0.000388154067
0.000388156412
0.000388159083
0.000388161706
0.000388163857
0.000388164806
0.000388163883
0.000388163552
0.000388160573
0.000388156407
0.000388151593
0.000388146804
0.000388142709
0.000388139815
0.000388138364
0.000388138303
0.000388139352
0.000388141125
0.000388143265
0.000388145541
0.000388147874
0.000388150303
0.000388152925
0.000388155834
0.000388159089
0.000388162711
0.000388166691
0.000388171016
0.000388175669
0.000388180637
0.000388185911
0.000388191475
0.000388197312
0.000388203397
0.000388209703
0.000388216197
0.000388222847
0.000388229616
0.000388236466
0.000388243358
0.000388250255
0.000388257117
0.000388263908
0.000388270593
0.000388277139
0.000388283516
0.000388289697
0.000388295655
0.000388301369
0.000388306817
0.000388311977
0.000388316833
0.000388321364
0.000388325551
0.000388325178
0.000388320979
0.000388316367
0.000388311356
0.00038830596
0.0003883002
0.000388294103
0.000388287699
0.000388281027
0.000388274131
0.00038826706
0.000388259868
0.000388252615
0.00038824536
0.000388238165
0.000388231091
0.000388224197
0.000388217537
0.000388211159
0.000388205108
0.000388199418
0.000388194116
0.000388189222
0.000388184748
0.000388180696
0.000388177066
0.000388173847
0.000388171025
0.000388168581
0.000388166496
0.000388164741
0.000388163295
0.000388162128
0.000388161215
0.000388160528
0.000388160043
0.000388159735
0.00038815958
0.000388159558
0.000388159649
0.000388159835
0.0003881601
0.000388160429
0.00038816081
0.000388161231
0.000388161683
0.000388162157
0.000388162646
0.000388163144
0.000388163646
0.000388164147
0.000388164644
0.000388165133
0.000388165613
0.000388166081
0.000388166536
0.000388166977
0.000388167404
0.000388167815
0.000388168211
0.000388168593
0.000388168959
0.00038816931
0.000388169648
0.000388169972
0.000388170282
0.000388170578
0.000388170863
0.000388170998
0.000388170904
0.000388170832
0.000388170779
0.000388170745
0.000388170728
0.000388170725
0.000388170735
0.000388170758
0.000388170791
0.000388170834
0.000388170886
0.000388170945
0.000388171011
0.000388171085
0.000388171163
0.000388171246
0.000388171333
0.000388171425
0.000388171519
0.000388171617
0.000388171717
0.000388171818
0.000388171922
0.000388172027
0.000388172133
0.00038817224
0.000388172348
0.000388172456
0.000388172565
0.000388172674
0.000388172783
0.000388172891
0.000388173
0.000388173109
0.000388173217
0.000388173323
0.000388173431
0.000388173537
0.000388173642
0.000388173747
0.000388173851
0.000388173954
0.000388174057
0.00038817416
0.000388174258
0.000388178865
0.000388172451
0.000388176902
0.000388177426
0.000388175513
0.000388172479
0.000388168354
0.000388163369
0.000388158035
0.000388153076
0.000388149245
0.000388147115
0.000388146946
0.000388148655
0.000388151886
0.00038815611
0.000388160483
0.000388155776
0.000388152318
0.000388150337
0.000388149787
0.000388150505
0.000388152251
0.000388154726
0.000388157578
0.000388160399
0.000388162722
0.000388162798
0.000388161385
0.000388161565
0.000388158969
0.000388154279
0.000388148823
0.000388143337
0.000388138559
0.000388135058
0.000388133113
0.000388132684
0.000388133472
0.000388135058
0.000388137053
0.000388139198
0.000388141404
0.000388143714
0.000388146232
0.000388149067
0.000388152285
0.000388155912
0.000388159943
0.000388164365
0.00038816916
0.000388174318
0.000388179826
0.000388185672
0.000388191834
0.000388198288
0.000388205001
0.000388211938
0.000388219061
0.00038822633
0.000388233701
0.00038824113
0.000388248576
0.000388255993
0.000388263343
0.000388270585
0.000388277683
0.000388284605
0.00038829132
0.000388297801
0.000388304027
0.000388309974
0.000388315623
0.000388320957
0.000388325957
0.000388330601
0.000388330348
0.000388325747
0.0003883207
0.000388315221
0.000388309321
0.000388303021
0.000388296347
0.000388289333
0.000388282019
0.000388274455
0.000388266697
0.000388258807
0.000388250855
0.00038824291
0.000388235045
0.000388227331
0.000388219838
0.000388212629
0.000388205761
0.000388199283
0.000388193234
0.000388187644
0.000388182534
0.000388177913
0.000388173781
0.000388170134
0.000388166956
0.000388164227
0.000388161921
0.000388160013
0.000388158469
0.000388157258
0.000388156348
0.000388155705
0.000388155299
0.0003881551
0.000388155079
0.00038815521
0.00038815547
0.000388155835
0.000388156286
0.000388156807
0.000388157381
0.000388157995
0.000388158638
0.000388159299
0.00038815997
0.000388160643
0.000388161314
0.000388161976
0.000388162625
0.00038816326
0.000388163877
0.000388164474
0.000388165052
0.000388165609
0.000388166143
0.000388166656
0.000388167148
0.000388167617
0.000388168066
0.000388168494
0.000388168902
0.000388169291
0.000388169661
0.000388170013
0.000388170348
0.000388170658
0.000388170651
0.000388170577
0.000388170523
0.000388170489
0.00038817047
0.000388170468
0.00038817048
0.000388170504
0.000388170539
0.000388170584
0.000388170638
0.000388170701
0.00038817077
0.000388170846
0.000388170927
0.000388171014
0.000388171105
0.000388171199
0.000388171297
0.000388171398
0.000388171501
0.000388171607
0.000388171714
0.000388171822
0.000388171932
0.000388172043
0.000388172154
0.000388172266
0.000388172377
0.000388172489
0.000388172601
0.000388172712
0.000388172823
0.000388172934
0.000388173044
0.000388173154
0.000388173263
0.000388173371
0.000388173479
0.000388173585
0.000388173692
0.000388173797
0.000388173901
0.000388174005
0.000388174108
0.000388174207
0.000388178816
0.000388172385
0.000388176807
0.000388177442
0.000388175329
0.000388171985
0.000388167453
0.000388161996
0.000388156181
0.000388150798
0.00038814667
0.000388144412
0.0003881443
0.000388146231
0.000388149804
0.000388154436
0.00038815949
0.000388154833
0.000388150958
0.000388148676
0.000388147949
0.000388148611
0.000388150408
0.000388153018
0.000388156061
0.000388159087
0.000388161583
0.000388160251
0.00038815858
0.000388158658
0.000388157307
0.000388152075
0.000388145954
0.000388139742
0.000388134248
0.000388130104
0.00038812763
0.000388126797
0.00038812729
0.00038812866
0.000388130479
0.000388132467
0.000388134521
0.000388136687
0.000388139082
0.000388141825
0.000388144994
0.000388148619
0.0003881527
0.000388157222
0.00038816217
0.000388167533
0.000388173301
0.000388179457
0.000388185981
0.000388192844
0.000388200011
0.000388207442