/*--------------------------------*- C++ -*----------------------------------*\
| =========                 |                                                 |
| \\      /  F ield         | OpenFOAM: The Open Source CFD Toolbox           |
|  \\    /   O peration     | Version:  v2012                                 |
|   \\  /    A nd           | Website:  www.openfoam.com                      |
|    \\/     M anipulation  |                                                 |
\*---------------------------------------------------------------------------*/
FoamFile
{
    version     2.0;
    format      ascii;
    class       surfaceVectorField;
    location    "2.04";
    object      Uf;
}
// * * * * * * * * * * * * * * * * * * * * * * * * * * * * * * * * * * * * * //

dimensions      [0 1 -1 0 0 0 0];


internalField   nonuniform List<vector> 
56481
(
(0.0999986033 -1.47602902e-06 0)
(0.0999993087 2.30575634e-06 0)
(0.0999972825 -9.2806793e-06 0)
(0.0999967888 -2.67984717e-06 0)
(0.0999989752 -2.30299935e-05 0)
(0.0999950073 -1.7066105e-05 0)
(0.100006222 -4.23343716e-05 0)
(0.0999972276 -3.97473064e-05 0)
(0.10002109 -6.67498698e-05 0)
(0.100006341 -7.02416482e-05 0)
(0.100045339 -9.46550518e-05 0)
(0.100024603 -0.000107529085 0)
(0.100079936 -0.000122483004 0)
(0.100053839 -0.000148160687 0)
(0.100124401 -0.000145141759 0)
(0.100094795 -0.000185916894 0)
(0.100176468 -0.000157361145 0)
(0.100146326 -0.000213187666 0)
(0.100232262 -0.000155279317 0)
(0.100205139 -0.000223202935 0)
(0.10028694 -0.000137571627 0)
(0.100266269 -0.000212080325 0)
(0.100335567 -0.000105689986 0)
(0.100324041 -0.000179836243 0)
(0.100373966 -6.3261644e-05 0)
(0.100373131 -0.000130096411 0)
(0.100399309 -1.49492671e-05 0)
(0.100409412 -6.88779129e-05 0)
(0.100410423 3.48681257e-05 0)
(0.100430752 -2.54685222e-06 0)
(0.100410251 8.14915799e-05 0)
(0.100437179 6.02690924e-05 0)
(0.10039981 0.000120247727 0)
(0.100430156 0.000115851956 0)
(0.100381084 0.000148273567 0)
(0.100411998 0.000159267116 0)
(0.100356373 0.000164339918 0)
(0.100385607 0.00018824113 0)
(0.100328172 0.000168416927 0)
(0.100354106 0.000202002222 0)
(0.100298863 0.000161552908 0)
(0.10032052 0.000201214738 0)
(0.100270504 0.000145746286 0)
(0.1002876 0.000187792205 0)
(0.100244772 0.000123883009 0)
(0.100257728 0.000164758526 0)
(0.100223254 9.96366011e-05 0)
(0.100232837 0.00013562177 0)
(0.100206774 7.71875725e-05 0)
(0.100214252 0.000105248582 0)
(0.10019509 6.0873184e-05 0)
(0.10020233 7.92031506e-05 0)
(0.100186598 5.47229603e-05 0)
(0.100196046 6.33189388e-05 0)
(0.100178264 6.18403645e-05 0)
(0.100192788 6.28859609e-05 0)
(0.100166007 8.37404186e-05 0)
(0.100188534 8.15220704e-05 0)
(0.100145457 0.000119818744 0)
(0.100178407 0.000120121771 0)
(0.10011279 0.000167203904 0)
(0.100157523 0.000176328347 0)
(0.100065405 0.000221212038 0)
(0.100121902 0.000244798065 0)
(0.100002337 0.000276353526 0)
(0.100069218 0.000318295626 0)
(0.0999242852 0.00032758509 0)
(0.0999991773 0.000389350014 0)
(0.0998332567 0.000371409488 0)
(0.099913394 0.000451976537 0)
(0.0997319314 0.000406472994 0)
(0.0998147943 0.000502917858 0)
(0.0996229537 0.000433486448 0)
(0.0997067449 0.000542001866 0)
(0.0995083702 0.000454553472 0)
(0.0995922023 0.000571543875 0)
(0.0993893658 0.000472212486 0)
(0.0994731466 0.000595094909 0)
(0.0992663237 0.000488575778 0)
(0.0993504376 0.000616070513 0)
(0.0991391134 0.000504849108 0)
(0.0992240555 0.000636773517 0)
(0.0990074456 0.000521305363 0)
(0.0990935454 0.000658075679 0)
(0.0988711508 0.000537583855 0)
(0.0989584518 0.000679694918 0)
(0.0987303087 0.000553089983 0)
(0.0988185888 0.000700773352 0)
(0.0985852406 0.000567301413 0)
(0.0986741092 0.000720422822 0)
(0.0984364283 0.000579896825 0)
(0.0985254286 0.000738031482 0)
(0.0982844249 0.000590733691 0)
(0.0983730991 0.000753306817 0)
(0.0981297999 0.000599757544 0)
(0.0982177102 0.000766158136 0)
(0.0979731232 0.000606919163 0)
(0.0980598449 0.00077654994 0)
(0.0978149735 0.000612135814 0)
(0.0979000805 0.000784410379 0)
(0.0976559523 0.000615293376 0)
(0.0977390093 0.00078961163 0)
(0.0974966908 0.000616267401 0)
(0.0975772541 0.000791995008 0)
(0.0973378488 0.000614943118 0)
(0.0974154736 0.00079140511 0)
(0.0971801079 0.000611225708 0)
(0.0972543559 0.000787711764 0)
(0.0970241627 0.000605041936 0)
(0.0970946095 0.000780816517 0)
(0.0968707138 0.000596337999 0)
(0.0969369532 0.000770650229 0)
(0.0967204609 0.000585077284 0)
(0.0967821085 0.000757169013 0)
(0.096574097 0.000571239303 0)
(0.0966307927 0.000740352035 0)
(0.0964323018 0.000554819489 0)
(0.0964837132 0.000720201264 0)
(0.0962957357 0.000535829297 0)
(0.0963415607 0.000696741966 0)
(0.0961650323 0.000514296548 0)
(0.0962050028 0.000670023054 0)
(0.0960407924 0.000490266345 0)
(0.0960746775 0.000640117157 0)
(0.0959235788 0.000463802908 0)
(0.0959511881 0.00060712071 0)
(0.0958139128 0.000434992331 0)
(0.0958350995 0.000571154209 0)
(0.0957122735 0.000403945727 0)
(0.0957269361 0.000532362495 0)
(0.0956190999 0.000370801526 0)
(0.0956271819 0.000490914598 0)
(0.0955347963 0.00033572542 0)
(0.0955362823 0.000447002661 0)
(0.0954597376 0.00029890693 0)
(0.0954546471 0.000400839616 0)
(0.095394275 0.000260552575 0)
(0.0953826542 0.000352655317 0)
(0.0953387411 0.000220876851 0)
(0.0953206529 0.000302690976 0)
(0.0952934633 0.000180090103 0)
(0.0952689676 0.000251190954 0)
(0.0952588314 0.000138373335 0)
(0.0952279052 0.00019838681 0)
(0.0952351521 9.58681185e-05 0)
(0.0951977495 0.000144444462 0)
(0.0952224118 5.25901395e-05 0)
(0.0951786736 8.92778376e-05 0)
(0.0952198215 8.70200057e-06 0)
(0.0951705481 3.37727732e-05 0)
(0.0952275571 -3.51608165e-05 0)
(0.0951731461 -2.2043025e-05 0)
(0.0952465319 -7.8610575e-05 0)
(0.0951867412 -7.790538e-05 0)
(0.0952765581 -0.000121700065 0)
(0.0952117023 -0.000133258841 0)
(0.0953174594 -0.000164329478 0)
(0.0952478888 -0.000188091331 0)
(0.0953689807 -0.000206262476 0)
(0.0952950086 -0.000242087454 0)
(0.0954308246 -0.000247269455 0)
(0.0953528339 -0.000294945838 0)
(0.0955026409 -0.000287129945 0)
(0.0954210879 -0.000346384991 0)
(0.0955840117 -0.000325610553 0)
(0.0954993927 -0.000396103933 0)
(0.0956744513 -0.000362464995 0)
(0.0955872911 -0.000443786501 0)
(0.095773413 -0.000397439886 0)
(0.0956842632 -0.000489113682 0)
(0.0958802956 -0.000430278965 0)
(0.0957897284 -0.000531769837 0)
(0.0959944519 -0.000460729539 0)
(0.0959030476 -0.000571448173 0)
(0.0961151969 -0.000488553256 0)
(0.096023532 -0.000607859691 0)
(0.096241815 -0.000513538282 0)
(0.0961504527 -0.000640744078 0)
(0.0963735656 -0.000535509457 0)
(0.0962830472 -0.000669879528 0)
(0.0965096879 -0.000554334575 0)
(0.0964205256 -0.000695090067 0)
(0.096649406 -0.000569926767 0)
(0.0965620761 -0.00071625017 0)
(0.096791935 -0.000582243971 0)
(0.0967068733 -0.000733286884 0)
(0.0969364897 -0.000591286855 0)
(0.0968540871 -0.000746179969 0)
(0.0970822934 -0.000597096227 0)
(0.0970028921 -0.000754960628 0)
(0.0972285877 -0.000599750345 0)
(0.0971524786 -0.000759709233 0)
(0.0973746414 -0.000599362095 0)
(0.0973020631 -0.000760552185 0)
(0.0975197588 -0.000596075824 0)
(0.097450897 -0.000757657982 0)
(0.0976632871 -0.000590063639 0)
(0.0975982756 -0.0007512325 0)
(0.0978046214 -0.000581521181 0)
(0.0977435445 -0.000741513606 0)
(0.0979432101 -0.000570662968 0)
(0.0978861053 -0.000728765261 0)
(0.0980785574 -0.000557717487 0)
(0.0980254194 -0.000713271314 0)
(0.0982102258 -0.000542922222 0)
(0.0981610106 -0.000695329215 0)
(0.0983378365 -0.000526518822 0)
(0.098292466 -0.000675243852 0)
(0.0984610697 -0.000508748582 0)
(0.0984194368 -0.000653321722 0)
(0.0985796631 -0.000489848405 0)
(0.0985416365 -0.000629865607 0)
(0.0986934104 -0.000470047288 0)
(0.098658839 -0.000605169895 0)
(0.0988021582 -0.000449563407 0)
(0.0987708761 -0.000579516581 0)
(0.098905803 -0.00042860172 0)
(0.0988776335 -0.000553172011 0)
(0.0990042875 -0.000407352081 0)
(0.0989790471 -0.000526384303 0)
(0.0990975969 -0.000385987849 0)
(0.0990750983 -0.000499381437 0)
(0.0991857544 -0.000364665043 0)
(0.09916581 -0.000472369989 0)
(0.0992688178 -0.000343522019 0)
(0.0992512415 -0.000445534493 0)
(0.0993468747 -0.00032267966 0)
(0.0993314842 -0.000419037364 0)
(0.0994200389 -0.000302242008 0)
(0.0994066573 -0.000393019367 0)
(0.0994884465 -0.000282297131 0)
(0.0994769033 -0.000367600484 0)
(0.0995522514 -0.00026291817 0)
(0.0995423839 -0.000342881067 0)
(0.0996116225 -0.000244164533 0)
(0.0996032762 -0.000318943207 0)
(0.0996667399 -0.000226083096 0)
(0.0996597691 -0.000295852224 0)
(0.0997177921 -0.000208709412 0)
(0.0997120599 -0.00027365822 0)
(0.099764973 -0.000192068929 0)
(0.0997603515 -0.000252397664 0)
(0.0998084799 -0.000176178234 0)
(0.0998048497 -0.000232095021 0)
(0.0998485114 -0.000161046452 0)
(0.0998457613 -0.000212764409 0)
(0.0998852654 -0.000146676794 0)
(0.0998832914 -0.00019441125 0)
(0.0999189374 -0.000133068276 0)
(0.0999176421 -0.000177033809 0)
(0.0999497181 -0.0001202173 0)
(0.0999490103 -0.00016062456 0)
(0.0999777908 -0.000108118448 0)
(0.099977586 -0.000145171226 0)
(0.100003329 -9.67641371e-05 0)
(0.100003551 -0.000130657376 0)
(0.100026497 -8.61434139e-05 0)
(0.100027077 -0.000117062612 0)
(0.100047445 -7.62406532e-05 0)
(0.100048327 -0.000104362526 0)
(0.100066317 -6.70347621e-05 0)
(0.100067454 -9.25285203e-05 0)
(0.100083248 -5.8499222e-05 0)
(0.1000846 -8.15277124e-05 0)
(0.100098365 -5.0602999e-05 0)
(0.100099902 -7.13232685e-05 0)
(0.100111789 -4.33119094e-05 0)
(0.100113487 -6.18752487e-05 0)
(0.100123636 -3.65898252e-05 0)
(0.100125477 -5.31415385e-05 0)
(0.100134015 -3.03994128e-05 0)
(0.100135984 -4.50785288e-05 0)
(0.100143028 -2.47023966e-05 0)
(0.100145118 -3.76414841e-05 0)
(0.100150772 -1.94592892e-05 0)
(0.100152978 -3.07845664e-05 0)
(0.100157335 -1.46284506e-05 0)
(0.10015966 -2.44603204e-05 0)
(0.100162799 -1.01642472e-05 0)
(0.100165253 -1.86185386e-05 0)
(0.100167237 -6.01460703e-06 0)
(0.100169844 -1.32037773e-05 0)
(0.100170738 -2.11941921e-06 0)
(0.100173521 -8.15398241e-06 0)
(0.100173468 1.57982826e-06 0)
(0.100176397 -3.40512734e-06 0)
(0.100175407 5.17296411e-06 0)
(0.100178577 1.04006918e-06 0)
(0.10017686 8.69185028e-06 0)
(0.100180159 5.18009063e-06 0)
(0.100177954 1.20487689e-05 0)
(0.100181246 9.10495541e-06 0)
(0.100178742 1.5159185e-05 0)
(0.100181923 1.27552019e-05 0)
(0.100179225 1.79820217e-05 0)
(0.100182245 1.61136115e-05 0)
(0.1001794 2.05005693e-05 0)
(0.100182239 1.91636948e-05 0)
(0.100179262 2.27152573e-05 0)
(0.10018192 2.18996288e-05 0)
(0.100178811 2.4640809e-05 0)
(0.100181303 2.43291612e-05 0)
(0.100178052 2.63003655e-05 0)
(0.100180398 2.64678639e-05 0)
(0.100176999 2.77204764e-05 0)
(0.100179221 2.83358587e-05 0)
(0.10017567 2.89278847e-05 0)
(0.100177787 2.9955713e-05 0)
(0.100174085 2.99475702e-05 0)
(0.100176114 3.13504754e-05 0)
(0.100172269 3.0801818e-05 0)
(0.100174223 3.25423403e-05 0)
(0.100170246 3.15099918e-05 0)
(0.100172134 3.35518954e-05 0)
(0.100168038 3.20886566e-05 0)
(0.100169868 3.43977633e-05 0)
(0.100165669 3.25518085e-05 0)
(0.100167445 3.50965107e-05 0)
(0.100163159 3.29111088e-05 0)
(0.100164884 3.56626281e-05 0)
(0.100160528 3.31761358e-05 0)
(0.100162203 3.61086134e-05 0)
(0.100157793 3.33546835e-05 0)
(0.100159419 3.64451773e-05 0)
(0.10015497 3.34531102e-05 0)
(0.100156547 3.66815006e-05 0)
(0.100152072 3.34767198e-05 0)
(0.100153601 3.68255163e-05 0)
(0.100149111 3.34301384e-05 0)
(0.100150592 3.68841987e-05 0)
(0.100146097 3.33176492e-05 0)
(0.100147529 3.68638334e-05 0)
(0.100143038 3.31434533e-05 0)
(0.100144423 3.67702476e-05 0)
(0.10013994 3.29118359e-05 0)
(0.10014128 3.66089867e-05 0)
(0.100136811 3.26272359e-05 0)
(0.100138108 3.6385427e-05 0)
(0.100133656 3.22942302e-05 0)
(0.100134911 3.61048289e-05 0)
(0.100130479 3.19174572e-05 0)
(0.100131696 3.57723374e-05 0)
(0.100127286 3.15015101e-05 0)
(0.100128467 3.53929483e-05 0)
(0.10012408 3.10508298e-05 0)
(0.100125228 3.49714585e-05 0)
(0.100120866 3.0569613e-05 0)
(0.100121983 3.45124204e-05 0)
(0.100117649 3.00617022e-05 0)
(0.100118737 3.40201122e-05 0)
(0.100114431 2.9530506e-05 0)
(0.100115492 3.34984145e-05 0)
(0.100111217 2.89790134e-05 0)
(0.100112253 3.29508143e-05 0)
(0.10010801 2.84098361e-05 0)
(0.100109021 3.23804368e-05 0)
(0.100104812 2.78252345e-05 0)
(0.1001058 3.17900541e-05 0)
(0.100101626 2.72271394e-05 0)
(0.100102593 3.11821001e-05 0)
(0.100098456 2.6617173e-05 0)
(0.100099401 3.05586939e-05 0)
(0.100095303 2.59967021e-05 0)
(0.100096226 2.9921661e-05 0)
(0.100092168 2.53668372e-05 0)
(0.100093071 2.92726494e-05 0)
(0.100089054 2.47288767e-05 0)
(0.100089936 2.86130856e-05 0)
(0.100085962 2.40832669e-05 0)
(0.100086828 2.7944649e-05 0)
(0.100082893 2.34346854e-05 0)
(0.100083727 2.72640908e-05 0)
(0.100079853 2.27684136e-05 0)
(0.100080712 2.65814795e-05 0)
(0.100076847 2.21430966e-05 0)
(0.100077528 2.58541151e-05 0)
(0.100073882 2.12946219e-05 0)
(0.100075093 2.5244718e-05 0)
(0.100070542 2.40400403e-05 0)
(0.0999977004 1.18030434e-06 0)
(0.099999293 4.95381672e-06 0)
(0.099994511 -9.92298583e-06 0)
(0.0999963995 9.92780932e-07 0)
(0.0999933945 -3.25956161e-05 0)
(0.0999938064 -1.5780481e-05 0)
(0.0999975916 -6.57346999e-05 0)
(0.0999950307 -4.4580268e-05 0)
(0.100009976 -0.000108319483 0)
(0.100003251 -8.45021266e-05 0)
(0.10003312 -0.00015755332 0)
(0.100021025 -0.000134179887 0)
(0.10006871 -0.000207415703 0)
(0.100050427 -0.000189143517 0)
(0.100116744 -0.000249271162 0)
(0.100092437 -0.000241228992 0)
(0.100174995 -0.00027409647 0)
(0.100146071 -0.000280264078 0)
(0.100239097 -0.000275148551 0)
(0.100208012 -0.00029701699 0)
(0.100303287 -0.000249889466 0)
(0.100273067 -0.000285996336 0)
(0.100361512 -0.000200476968 0)
(0.100335181 -0.000246883607 0)
(0.100408541 -0.000132886135 0)
(0.100388597 -0.000184250866 0)
(0.100440826 -5.52101486e-05 0)
(0.100428819 -0.000106054099 0)
(0.100457546 2.40175108e-05 0)
(0.100453324 -2.18002533e-05 0)
(0.100457054 9.69325023e-05 0)
(0.100461525 6.08350168e-05 0)
(0.100442317 0.000157440867 0)
(0.100454707 0.000132822369 0)
(0.100416491 0.000201746871 0)
(0.100435466 0.000189005778 0)
(0.100383313 0.000228087337 0)
(0.100406963 0.000226446055 0)
(0.10034644 0.000236501995 0)
(0.100372755 0.000244462205 0)
(0.100309238 0.000228530081 0)
(0.100336365 0.000244052948 0)
(0.10027476 0.00020693565 0)
(0.100300985 0.000227494132 0)
(0.100245681 0.000175643491 0)
(0.100269419 0.000198244041 0)
(0.100223737 0.000139763192 0)
(0.100243923 0.000160890907 0)
(0.100209752 0.000105478792 0)
(0.100225935 0.000121352356 0)
(0.100203246 7.97059728e-05 0)
(0.100215808 8.66945915e-05 0)
(0.100202176 6.93272242e-05 0)
(0.100212478 6.45516377e-05 0)
(0.100202959 7.99487214e-05 0)
(0.100213215 6.19843114e-05 0)
(0.1002008 0.000114486447 0)
(0.100213724 8.40071835e-05 0)
(0.100190317 0.000172130474 0)
(0.100208698 0.000132193107 0)
(0.100166468 0.000248159099 0)
(0.100192737 0.000203790915 0)
(0.100125543 0.000334785695 0)
(0.100161335 0.000291923896 0)
(0.100065888 0.000422881965 0)
(0.100111728 0.000386989095 0)
(0.0999881249 0.000504100331 0)
(0.100043372 0.000478895894 0)
(0.0998947819 0.000572735615 0)
(0.0999578695 0.000559462349 0)
(0.0997894677 0.000626724872 0)
(0.0998583744 0.00062418874 0)
(0.0996758591 0.000667489127 0)
(0.0997486331 0.000672823943 0)
(0.0995568456 0.000698763602 0)
(0.0996320134 0.000708589683 0)
(0.0994340836 0.000724944107 0)
(0.0995108207 0.000736457138 0)
(0.0993080322 0.000749610584 0)
(0.0993860874 0.000761220686 0)
(0.099178349 0.00077471868 0)
(0.0992578101 0.000786105608 0)
(0.0990444141 0.000800585474 0)
(0.0991254436 0.000812303728 0)
(0.0989057559 0.000826440985 0)
(0.0989884028 0.000839361945 0)
(0.0987622614 0.000851145969 0)
(0.0988463904 0.000866009398 0)
(0.0986141768 0.000873733263 0)
(0.0986994927 0.000890944487 0)
(0.0984619875 0.000893626829 0)
(0.0985481035 0.00091327975 0)
(0.0983062819 0.000910590004 0)
(0.098392782 0.000932604206 0)
(0.0981476629 0.000924553577 0)
(0.0982341362 0.00094881032 0)
(0.0979867211 0.000935461703 0)
(0.0980727674 0.000961876849 0)
(0.0978240472 0.000943200002 0)
(0.0979092696 0.00097173174 0)
(0.0976602549 0.000947598802 0)
(0.0977442514 0.000978220913 0)
(0.0974959942 0.000948470951 0)
(0.0975783552 0.00098114367 0)
(0.0973319519 0.000945647603 0)
(0.097412264 0.000980302282 0)
(0.0971688431 0.000938996223 0)
(0.0972466949 0.000975534088 0)
(0.0970073998 0.000928422983 0)
(0.0970823887 0.000966720889 0)
(0.0968483616 0.000913868448 0)
(0.0969200988 0.000953785127 0)
(0.0966924673 0.000895303545 0)
(0.0967605821 0.000936683564 0)
(0.0965404487 0.000872728138 0)
(0.0966045922 0.000915403764 0)
(0.0963930236 0.00084617144 0)
(0.0964528723 0.000889963495 0)
(0.0962508898 0.000815692715 0)
(0.0963061485 0.000860411166 0)
(0.096114719 0.000781381375 0)
(0.0961651231 0.000826825753 0)
(0.0959851517 0.000743356305 0)
(0.0960304683 0.000789315861 0)
(0.0958627933 0.000701764535 0)
(0.0959028204 0.000748018268 0)
(0.0957482118 0.000656779292 0)
(0.0957827756 0.000703096517 0)
(0.0956419367 0.000608597426 0)
(0.0956708874 0.000654739853 0)
(0.0955444584 0.000557436414 0)
(0.0955676659 0.000603162351 0)
(0.0954562279 0.000503531363 0)
(0.0954735789 0.000548601442 0)
(0.0953776571 0.000447132282 0)
(0.0953890553 0.000491315049 0)
(0.09530912 0.000388501124 0)
(0.0953144878 0.000431576806 0)
(0.0952509542 0.000327907654 0)
(0.0952502351 0.000369669825 0)
(0.095203461 0.000265621684 0)
(0.0951966215 0.000305880045 0)
(0.0951668986 0.000201892907 0)
(0.0951539303 0.00024048896 0)
(0.095141435 0.000136931039 0)
(0.0951223996 0.000173766155 0)
(0.095126952 7.08905796e-05 0)
(0.0951021385 0.000105955241 0)
(0.0951238759 4.11654177e-06 0)
(0.0950932236 3.73150121e-05 0)
(0.0951322718 -6.27009233e-05 0)
(0.0950957996 -3.17111015e-05 0)
(0.0951519932 -0.00012908515 0)
(0.0951098894 -0.000100614776 0)
(0.0951831007 -0.000194883817 0)
(0.0951355044 -0.000169079664 0)
(0.0952254464 -0.000259831292 0)
(0.09517265 -0.000236852975 0)
(0.0952788614 -0.000323556982 0)
(0.0952211605 -0.000303595633 0)
(0.0953431032 -0.000385697123 0)
(0.0952807985 -0.000368921262 0)
(0.09541784 -0.00044588996 0)
(0.0953512805 -0.000432445598 0)
(0.0955026625 -0.00050375934 0)
(0.0954322415 -0.000493778314 0)
(0.0955970882 -0.000558922618 0)
(0.0955232311 -0.000552519107 0)
(0.0957005627 -0.000611003209 0)
(0.0956237252 -0.000608266147 0)
(0.0958124647 -0.000659639785 0)
(0.0957331316 -0.000660626602 0)
(0.0959321134 -0.000704494195 0)
(0.0958507918 -0.000709225425 0)
(0.0960587768 -0.00074526013 0)
(0.0959759866 -0.000753714505 0)
(0.096191679 -0.000781671371 0)
(0.0961079443 -0.000793782997 0)
(0.0963300077 -0.000813508745 0)
(0.0962458478 -0.000829167046 0)
(0.0964729216 -0.000840605628 0)
(0.0963888436 -0.00085965761 0)
(0.0966195597 -0.000862852169 0)
(0.0965360502 -0.000885106116 0)
(0.0967690506 -0.000880197963 0)
(0.0966865694 -0.000905427916 0)
(0.0969205237 -0.000892652953 0)
(0.0968394979 -0.000920603584 0)
(0.0970731206 -0.000900286466 0)
(0.0969939394 -0.000930678241 0)
(0.0972260061 -0.000903224493 0)
(0.097149017 -0.000935759151 0)
(0.0973783789 -0.000901645512 0)
(0.0973038847 -0.000936011806 0)
(0.0975294814 -0.000895775088 0)
(0.0974577383 -0.000931654703 0)
(0.0976786071 -0.00088587959 0)
(0.0976098243 -0.000922953011 0)
(0.0978251078 -0.00087225927 0)
(0.0977594481 -0.00091021139 0)
(0.0979683981 -0.000855240955 0)
(0.0979059796 -0.000893766223 0)
(0.0981079588 -0.000835170631 0)
(0.0980488572 -0.000873977572 0)
(0.0982433387 -0.000812406101 0)
(0.0981875907 -0.000851221128 0)
(0.0983741547 -0.000787309981 0)
(0.0983217618 -0.000825880435 0)
(0.0985000913 -0.000760243185 0)
(0.0984510236 -0.000798339598 0)
(0.0986208983 -0.000731559116 0)
(0.0985750987 -0.000768976693 0)
(0.0987363879 -0.000701598555 0)
(0.0986937764 -0.000738157983 0)
(0.0988464312 -0.000670685453 0)
(0.0988069085 -0.000706233029 0)
(0.0989509532 -0.000639123514 0)
(0.0989144051 -0.00067353073 0)
(0.0990499289 -0.000607193655 0)
(0.0990162292 -0.000640356261 0)
(0.0991433775 -0.000575152217 0)
(0.0991123917 -0.0006069889 0)
(0.0992313579 -0.000543229967 0)
(0.0992029458 -0.000573680695 0)
(0.0993139633 -0.000511631702 0)
(0.0992879818 -0.000540655897 0)
(0.0993913168 -0.000480536433 0)
(0.0993676217 -0.00050811105 0)
(0.0994635662 -0.000450098117 0)
(0.0994420141 -0.000476215677 0)
(0.09953088 -0.000420446745 0)
(0.0995113296 -0.00044511339 0)
(0.0995934431 -0.000391689758 0)
(0.0995757563 -0.000414923323 0)
(0.0996514524 -0.000363913736 0)
(0.0996354954 -0.000385741866 0)
(0.0997051142 -0.000337186207 0)
(0.099690758 -0.000357644584 0)
(0.0997546403 -0.000311557552 0)
(0.0997417612 -0.000330688198 0)
(0.0998002453 -0.000287063004 0)
(0.0997887256 -0.000304912578 0)
(0.0998421446 -0.000263724606 0)
(0.0998318724 -0.000280342666 0)
(0.0998805513 -0.000241553128 0)
(0.0998714212 -0.000256990369 0)
(0.0999156748 -0.000220549694 0)
(0.0999075885 -0.000234856433 0)
(0.0999477183 -0.000200707045 0)
(0.0999405861 -0.000213932378 0)
(0.0999768781 -0.000182010425 0)
(0.0999706194 -0.000194202483 0)
(0.100003343 -0.000164438377 0)
(0.0999978863 -0.000175645496 0)
(0.100027292 -0.000147963654 0)
(0.100022575 -0.00015823559 0)
(0.100048898 -0.000132554207 0)
(0.100044864 -0.00014194251 0)
(0.100068324 -0.000118174025 0)
(0.100064919 -0.000126731458 0)
(0.100085723 -0.000104783626 0)
(0.100082899 -0.000112563194 0)
(0.100101238 -9.23403235e-05 0)
(0.100098949 -9.93943947e-05 0)
(0.100115007 -8.07986226e-05 0)
(0.100113208 -8.71782557e-05 0)
(0.100127156 -7.01107994e-05 0)
(0.100125806 -7.58654047e-05 0)
(0.100137806 -6.0227449e-05 0)
(0.100136866 -6.5404819e-05 0)
(0.100147069 -5.10978988e-05 0)
(0.100146503 -5.57445379e-05 0)
(0.10015505 -4.26704278e-05 0)
(0.100154826 -4.68321737e-05 0)
(0.10016185 -3.48921427e-05 0)
(0.100161936 -3.86152007e-05 0)
(0.100167565 -2.77085368e-05 0)
(0.100167932 -3.10409812e-05 0)
(0.100172288 -2.10627549e-05 0)
(0.100172904 -2.40567815e-05 0)
(0.100176115 -1.48955529e-05 0)
(0.100176942 -1.76102057e-05 0)
(0.100179152 -9.14836997e-06 0)
(0.100180134 -1.16513868e-05 0)
(0.100181523 -3.77948538e-06 0)
(0.100182574 -6.13588573e-06 0)
(0.100183344 1.23536187e-06 0)
(0.100184345 -1.05712802e-06 0)
(0.100184527 5.89891067e-06 0)
(0.100185522 3.81821702e-06 0)
(0.100185193 1.02142212e-05 0)
(0.100186208 8.33814191e-06 0)
(0.100185409 1.41952194e-05 0)
(0.100186499 1.25064577e-05 0)
(0.10018524 1.78393106e-05 0)
(0.100186434 1.6308611e-05 0)
(0.100184739 2.11418714e-05 0)
(0.100186035 1.97407035e-05 0)
(0.100183941 2.41086849e-05 0)
(0.100185329 2.28184433e-05 0)
(0.100182871 2.67525491e-05 0)
(0.10018434 2.55612012e-05 0)
(0.100181549 2.90905962e-05 0)
(0.100183083 2.7990266e-05 0)
(0.100179992 3.11430425e-05 0)
(0.100181577 3.01288305e-05 0)
(0.100178216 3.293157e-05 0)
(0.100179839 3.20004879e-05 0)
(0.100176238 3.44780743e-05 0)
(0.100177888 3.36281167e-05 0)
(0.100174075 3.58039168e-05 0)
(0.100175743 3.50333186e-05 0)
(0.100171744 3.6929433e-05 0)
(0.100173423 3.62361584e-05 0)
(0.100169262 3.78736349e-05 0)
(0.100170948 3.7255098e-05 0)
(0.100166648 3.86539511e-05 0)
(0.100168336 3.8107156e-05 0)
(0.100163916 3.92859913e-05 0)
(0.100165605 3.88077591e-05 0)
(0.100161084 3.97835384e-05 0)
(0.100162769 3.93706224e-05 0)
(0.100158163 4.01587193e-05 0)
(0.100159845 3.98078389e-05 0)
(0.100155169 4.04222214e-05 0)
(0.100156845 4.01300439e-05 0)
(0.100152111 4.05835177e-05 0)
(0.100153781 4.03466322e-05 0)
(0.100149 4.06510848e-05 0)
(0.100150663 4.04659967e-05 0)
(0.100145846 4.06325998e-05 0)
(0.100147502 4.04957618e-05 0)
(0.100142657 4.05351088e-05 0)
(0.100144305 4.0442987e-05 0)
(0.100139439 4.03651621e-05 0)
(0.100141079 4.03143235e-05 0)
(0.100136199 4.01289103e-05 0)
(0.10013783 4.01161161e-05 0)
(0.100132943 3.98321654e-05 0)
(0.100134564 3.98544524e-05 0)
(0.100129675 3.94804262e-05 0)
(0.100131286 3.95351699e-05 0)
(0.100126401 3.90788782e-05 0)
(0.100127999 3.91638349e-05 0)
(0.100123123 3.86323722e-05 0)
(0.100124709 3.87457174e-05 0)
(0.100119846 3.81453994e-05 0)
(0.100121418 3.82858151e-05 0)
(0.100116573 3.76221308e-05 0)
(0.10011813 3.77890226e-05 0)
(0.100113307 3.70664624e-05 0)
(0.100114848 3.72595275e-05 0)
(0.10011005 3.64819814e-05 0)
(0.100111576 3.67010262e-05 0)
(0.100106805 3.58719263e-05 0)
(0.100108315 3.61168856e-05 0)
(0.100103575 3.52391795e-05 0)
(0.100105068 3.55101298e-05 0)
(0.10010036 3.45862735e-05 0)
(0.100101837 3.48834435e-05 0)
(0.100097164 3.3915395e-05 0)
(0.100098625 3.42391856e-05 0)
(0.100093988 3.32284294e-05 0)
(0.100095431 3.35793857e-05 0)
(0.100090833 3.25268982e-05 0)
(0.10009226 3.29058179e-05 0)
(0.1000877 3.18124378e-05 0)
(0.100089109 3.2219699e-05 0)
(0.100084593 3.10852494e-05 0)
(0.100085988 3.15226856e-05 0)
(0.100081512 3.03504643e-05 0)
(0.100082874 3.081257e-05 0)
(0.100078455 2.95913211e-05 0)
(0.100079847 3.01010157e-05 0)
(0.100075423 2.88751475e-05 0)
(0.10007665 2.93457574e-05 0)
(0.100072402 2.79204176e-05 0)
(0.100074203 2.87237911e-05 0)
(0.100069635 2.75289459e-05 0)
(0.0999982651 4.60722843e-06 0)
(0.0999992546 6.95156892e-06 0)
(0.0999955152 -5.42360615e-06 0)
(0.0999962659 4.15931235e-06 0)
(0.099995494 -2.921618e-05 0)
(0.0999936223 -1.57560439e-05 0)
(0.100000915 -6.56360277e-05 0)
(0.0999948232 -5.08224434e-05 0)
(0.100014417 -0.000113527737 0)
(0.100003129 -0.00010004978 0)
(0.100038326 -0.000169799068 0)
(0.100021237 -0.000161712056 0)
(0.100074139 -0.000227747505 0)
(0.100051303 -0.000230382067 0)
(0.100121777 -0.000277565159 0)
(0.100094359 -0.000296085065 0)
(0.100179097 -0.00030878588 0)
(0.100149457 -0.00034626852 0)
(0.100241962 -0.000313385519 0)
(0.100213276 -0.000369407606 0)
(0.100304923 -0.000288090121 0)
(0.100280545 -0.00035849718 0)
(0.100362236 -0.00023502629 0)
(0.100345064 -0.000312879519 0)
(0.100408865 -0.000160787879 0)
(0.100400893 -0.000237945114 0)
(0.100441219 -7.46241542e-05 0)
(0.100443339 -0.000143310984 0)
(0.100457319 1.34260988e-05 0)
(0.100469549 -4.03394783e-05 0)
(0.100459129 9.45017052e-05 0)
(0.100479011 5.87505771e-05 0)
(0.100447847 0.000161966961 0)
(0.10047315 0.000145814384 0)
(0.10042591 0.000211491825 0)
(0.100454384 0.000214265957 0)
(0.100396374 0.00024112298 0)
(0.100425921 0.000260457365 0)
(0.100362655 0.000250948687 0)
(0.100391464 0.00028329061 0)
(0.100328073 0.000242634963 0)
(0.100354705 0.000283874615 0)
(0.100295574 0.00021910669 0)
(0.100319051 0.000264917254 0)
(0.100267628 0.00018442893 0)
(0.100287484 0.000230423713 0)
(0.10024607 0.000143923515 0)
(0.10026239 0.000185715458 0)
(0.100231908 0.000104307092 0)
(0.100245328 0.000137660122 0)
(0.100224947 7.34148318e-05 0)
(0.100236713 9.47103503e-05 0)
(0.100223426 5.92655407e-05 0)
(0.100235444 6.63027473e-05 0)
(0.100223882 6.85705076e-05 0)
(0.100238692 6.14592939e-05 0)
(0.100221503 0.000105094244 0)
(0.100242039 8.67475043e-05 0)
(0.100210981 0.000168388524 0)
(0.100240029 0.000144308629 0)
(0.100187458 0.000253411571 0)
(0.10022705 0.00023087841 0)
(0.10014737 0.000351353441 0)
(0.100198368 0.000338085679 0)
(0.100089061 0.000451565724 0)
(0.100151023 0.000454132913 0)
(0.100012969 0.000544068273 0)
(0.100084328 0.000566516904 0)
(0.0999213205 0.000621852771 0)
(0.0999998185 0.000664996987 0)
(0.0998174034 0.000682222424 0)
(0.0999006445 0.00074385092 0)
(0.0997046539 0.000726738849 0)
(0.0997906107 0.000802656674 0)
(0.0995858555 0.000759886272 0)
(0.0996731827 0.000845387822 0)
(0.0994626907 0.000787065416 0)
(0.0995507783 0.000878283326 0)
(0.0993357307 0.000812740835 0)
(0.099424531 0.000907417017 0)
(0.0992047702 0.000839385801 0)
(0.0992945071 0.000936908696 0)
(0.0990692995 0.000867420096 0)
(0.0991601922 0.00096830033 0)
(0.098928908 0.00089587881 0)
(0.0990209981 0.00100102487 0)
(0.0987834975 0.000923315139 0)
(0.0988766032 0.00103345174 0)
(0.0986333018 0.000948495787 0)
(0.0987270642 0.00106389712 0)
(0.0984787882 0.000970690978 0)
(0.0985727512 0.00109120458 0)
(0.0983205352 0.000989614845 0)
(0.0984142123 0.00111483495 0)
(0.0981591491 0.00100520547 0)
(0.0982520565 0.00113464883 0)
(0.0979952349 0.0010174233 0)
(0.0980868965 0.00115062657 0)
(0.0978294041 0.00102615413 0)
(0.0979193445 0.00116268838 0)
(0.0976622942 0.00103121025 0)
(0.0977500318 0.00117065052 0)
(0.0974945803 0.001032378 0)
(0.097579628 0.00117426877 0)
(0.0973269755 0.001029464 0)
(0.097408846 0.00117330179 0)
(0.0971602225 0.00102231884 0)
(0.0972384368 0.00116755265 0)
(0.0969950832 0.00101084026 0)
(0.097069178 0.00115688138 0)
(0.0968323281 0.000994967334 0)
(0.0969018618 0.00114120007 0)
(0.0966727287 0.000974674696 0)
(0.0967372854 0.00112046471 0)
(0.0965170498 0.000949969904 0)
(0.0965762425 0.0010946704 0)
(0.0963660426 0.000920892981 0)
(0.0964195157 0.00106385057 0)
(0.0962204376 0.000887516151 0)
(0.096267869 0.00102807755 0)
(0.0960809373 0.000849942757 0)
(0.0961220403 0.000987462441 0)
(0.0959482096 0.000808305492 0)
(0.095982735 0.000942153858 0)
(0.0958228814 0.000762764674 0)
(0.0958506207 0.000892335547 0)
(0.0957055345 0.000713507263 0)
(0.0957263237 0.000838223324 0)
(0.0955967028 0.000660746668 0)
(0.0956104272 0.000780061163 0)
(0.0954968743 0.000604722347 0)
(0.0955034702 0.000718116445 0)
(0.0954064947 0.000545697748 0)
(0.0954059474 0.00065267491 0)
(0.0953259735 0.000483955884 0)
(0.095318309 0.000584036413 0)
(0.0952556878 0.000419792704 0)
(0.095240962 0.000512511864 0)
(0.095195983 0.000353509622 0)
(0.0951742709 0.00043842083 0)
(0.0951471696 0.00028540765 0)
(0.0951185591 0.000362089378 0)
(0.0951095158 0.000215785934 0)
(0.0950741073 0.000283847933 0)
(0.0950832332 0.000144939688 0)
(0.0950411483 0.000204030882 0)
(0.0950684524 7.32332611e-05 0)
(0.095019871 0.000122975539 0)
(0.0950651827 1.05343537e-06 0)
(0.0950103856 4.10801752e-05 0)
(0.09507346 -7.13088544e-05 0)
(0.0950127366 -4.12424869e-05 0)
(0.09509342 -0.000143521405 0)
(0.0950269953 -0.000123599034 0)
(0.0951250952 -0.000215197138 0)
(0.0950532297 -0.000205554209 0)
(0.0951683837 -0.000285976899 0)
(0.0950914068 -0.000286700339 0)
(0.0952230945 -0.000355479449 0)
(0.0951413848 -0.000366595949 0)
(0.0952889684 -0.000423299648 0)
(0.0952029558 -0.000444776079 0)