/*--------------------------------*- C++ -*----------------------------------*\
| =========                 |                                                 |
| \\      /  F ield         | OpenFOAM: The Open Source CFD Toolbox           |
|  \\    /   O peration     | Version:  v2012                                 |
|   \\  /    A nd           | Website:  www.openfoam.com                      |
|    \\/     M anipulation  |                                                 |
\*---------------------------------------------------------------------------*/
FoamFile
{
    version     2.0;
    format      ascii;
    class       volVectorField;
    location    "2.89";
    object      H;
}
// * * * * * * * * * * * * * * * * * * * * * * * * * * * * * * * * * * * * * //

dimensions      [0 1 -2 0 0 0 0];


internalField   nonuniform List<vector> 
28416
(
(121.691564 -0.00947587182 0)
(121.700687 -0.0350269572 0)
(121.727285 -0.0663520234 0)
(121.769942 -0.0998185399 0)
(121.827424 -0.129129789 0)
(121.896228 -0.147054027 0)
(121.970974 -0.148173863 0)
(122.045064 -0.130718047 0)
(122.111692 -0.0965379356 0)
(122.164656 -0.0498553162 0)
(122.199226 0.00454368068 0)
(122.219303 0.0631814066 0)
(122.227184 0.11824264 0)
(122.222281 0.163260105 0)
(122.205728 0.195172514 0)
(122.180633 0.212629949 0)
(122.150341 0.215744827 0)
(122.118058 0.205893759 0)
(122.086728 0.185279987 0)
(122.058848 0.15673382 0)
(122.03628 0.123837 0)
(122.019965 0.0911441682 0)
(122.009519 0.0640898088 0)
(122.003331 0.0484460739 0)
(121.998468 0.048785269 0)
(121.990248 0.0673467906 0)
(121.972943 0.103707835 0)
(121.941228 0.154831734 0)
(121.891233 0.215568379 0)
(121.820922 0.279672344 0)
(121.730144 0.340951765 0)
(121.62041 0.394161559 0)
(121.494454 0.435518687 0)
(121.355701 0.462889021 0)
(121.207813 0.475750139 0)
(121.054372 0.475037163 0)
(120.898666 0.462953118 0)
(120.743524 0.442782002 0)
(120.591127 0.418692546 0)
(120.442749 0.395478513 0)
(120.298464 0.378168763 0)
(120.156921 0.371470815 0)
(120.015349 0.379078488 0)
(119.869914 0.402955431 0)
(119.716394 0.442777879 0)
(119.551036 0.495751668 0)
(119.371337 0.556968193 0)
(119.176531 0.620311074 0)
(118.967683 0.679718052 0)
(118.747373 0.730440745 0)
(118.519084 0.769915279 0)
(118.286484 0.797984642 0)
(118.052793 0.816449099 0)
(117.820384 0.828161255 0)
(117.590698 0.836021447 0)
(117.364404 0.842213157 0)
(117.141723 0.847870339 0)
(116.922742 0.853170958 0)
(116.707647 0.857697143 0)
(116.496806 0.860848773 0)
(116.29074 0.862143818 0)
(116.090034 0.861338986 0)
(115.895249 0.858399255 0)
(115.706865 0.853394417 0)
(115.525266 0.846398443 0)
(115.350753 0.837433136 0)
(115.183564 0.826459368 0)
(115.023898 0.813396525 0)
(114.871926 0.798147498 0)
(114.727796 0.780615669 0)
(114.591641 0.760711383 0)
(114.46358 0.738351796 0)
(114.343726 0.713459307 0)
(114.232194 0.685961737 0)
(114.129116 0.655794735 0)
(114.034649 0.622905308 0)
(113.948998 0.587253583 0)
(113.872468 0.548808439 0)
(113.805437 0.50751326 0)
(113.748198 0.46327735 0)
(113.701013 0.416040048 0)
(113.664242 0.365685505 0)
(113.638177 0.311999997 0)
(113.622904 0.254760529 0)
(113.618271 0.193832536 0)
(113.62404 0.129409764 0)
(113.639234 0.0619968224 0)
(113.663008 -0.00594868177 0)
(113.700942 -0.072053373 0)
(113.756083 -0.138376769 0)
(113.827597 -0.206174589 0)
(113.914259 -0.275295633 0)
(114.016216 -0.345416124 0)
(114.13371 -0.416247934 0)
(114.266616 -0.487357668 0)
(114.414708 -0.558186701 0)
(114.577719 -0.628122477 0)
(114.755246 -0.696514231 0)
(114.946715 -0.762673797 0)
(115.151389 -0.825886244 0)
(115.368362 -0.885426542 0)
(115.596569 -0.940579939 0)
(115.834786 -0.990666087 0)
(116.081653 -1.03506462 0)
(116.335688 -1.07323893 0)
(116.595309 -1.10475578 0)
(116.85886 -1.12929956 0)
(117.124644 -1.14668087 0)
(117.390952 -1.15683957 0)
(117.656095 -1.15984324 0)
(117.918442 -1.1558813 0)
(118.176448 -1.14525571 0)
(118.428682 -1.12836837 0)
(118.673846 -1.10570606 0)
(118.910801 -1.07782338 0)
(119.138565 -1.04532469 0)
(119.356329 -1.00884574 0)
(119.563454 -0.969035938 0)
(119.759463 -0.926542003 0)
(119.944041 -0.881993392 0)
(120.117016 -0.835990083 0)
(120.278351 -0.789092671 0)
(120.428128 -0.741814862 0)
(120.566532 -0.694618236 0)
(120.693839 -0.647909211 0)
(120.810395 -0.60203799 0)
(120.916608 -0.55729925 0)
(121.012931 -0.513934011 0)
(121.09985 -0.472132021 0)
(121.177873 -0.43203474 0)
(121.247528 -0.393739629 0)
(121.309348 -0.357305756 0)
(121.363866 -0.322759322 0)
(121.411611 -0.290097788 0)
(121.453103 -0.259293525 0)
(121.488852 -0.230299215 0)
(121.519356 -0.203054825 0)
(121.545099 -0.177493278 0)
(121.566545 -0.153544349 0)
(121.584143 -0.131140066 0)
(121.598318 -0.110222602 0)
(121.609473 -0.0907523782 0)
(121.617971 -0.0727142538 0)
(121.624122 -0.0561173118 0)
(121.62816 -0.0409791622 0)
(121.630234 -0.0272898488 0)
(121.630405 -0.0149784864 0)
(121.6286 -0.00385878199 0)
(121.625658 0.00644693535 0)
(121.621933 0.0157178217 0)
(121.617203 0.0239020489 0)
(121.611391 0.0311168998 0)
(121.604623 0.0374701884 0)
(121.597017 0.0430517669 0)
(121.588675 0.0479461245 0)
(121.579704 0.0522272072 0)
(121.570205 0.0559573701 0)
(121.560266 0.059190422 0)
(121.549969 0.0619733556 0)
(121.539386 0.0643470462 0)
(121.528582 0.0663470856 0)
(121.517612 0.0680047676 0)
(121.506525 0.0693480987 0)
(121.495364 0.0704026936 0)
(121.484166 0.0711924414 0)
(121.472961 0.0717398921 0)
(121.461778 0.0720664239 0)
(121.450639 0.0721922674 0)
(121.439567 0.0721364706 0)
(121.42858 0.0719168368 0)
(121.417694 0.0715498612 0)
(121.406924 0.0710506716 0)
(121.396284 0.0704329789 0)
(121.385784 0.0697090526 0)
(121.375437 0.0688897391 0)
(121.365249 0.0679845307 0)
(121.355229 0.0670016903 0)
(121.345383 0.0659484308 0)
(121.335715 0.0648311145 0)
(121.326232 0.0636554462 0)
(121.316935 0.0624264859 0)
(121.30783 0.0611486196 0)
(121.298921 0.0598257306 0)
(121.290207 0.0584608527 0)
(121.281706 0.0570575241 0)
(121.273377 0.055612285 0)
(121.265397 0.0541451481 0)
(121.257207 0.0525590929 0)
(121.250914 0.0512317644 0)
(121.236978 0.0484420889 0)
(121.693364 -0.0189686012 0)
(121.699546 -0.0690466215 0)
(121.722736 -0.129132358 0)
(121.763754 -0.192980003 0)
(121.822659 -0.249815022 0)
(121.896186 -0.287042153 0)
(121.978475 -0.295046196 0)
(122.061997 -0.270377134 0)
(122.138772 -0.215827816 0)
(122.20184 -0.138625713 0)
(122.247263 -0.0479679893 0)
(122.273475 0.0469335963 0)
(122.279273 0.134990762 0)
(122.266768 0.207971748 0)
(122.240583 0.260910548 0)
(122.204917 0.291548466 0)
(122.16405 0.300072262 0)
(122.122117 0.288495382 0)
(122.082855 0.25999018 0)
(122.049481 0.21865357 0)
(122.024509 0.169799671 0)
(122.009369 0.120415946 0)
(122.003995 0.0791322763 0)
(122.006337 0.0552949356 0)
(122.012175 0.0567448516 0)
(122.015662 0.0877366429 0)
(122.010134 0.147870295 0)
(121.989074 0.232166598 0)
(121.947255 0.332126166 0)
(121.881611 0.437516708 0)
(121.791552 0.538321429 0)
(121.678759 0.626261155 0)
(121.546651 0.695617613 0)
(121.399696 0.74340019 0)
(121.242762 0.769075317 0)
(121.080615 0.774130413 0)
(120.917578 0.761694132 0)
(120.757286 0.736312774 0)
(120.602444 0.703836317 0)
(120.454564 0.671246746 0)
(120.313669 0.646216406 0)
(120.178096 0.636253018 0)
(120.044503 0.647467283 0)
(119.908199 0.683221877 0)
(119.763827 0.743083117 0)
(119.606316 0.82250779 0)
(119.431892 0.91352015 0)
(119.238886 1.00631215 0)
(119.028078 1.09135903 0)
(118.802465 1.1614315 0)
(118.566517 1.21290084 0)
(118.325157 1.24597593 0)
(118.08278 1.26388802 0)
(117.84259 1.27139759 0)
(117.606391 1.27319195 0)
(117.374795 1.27270104 0)
(117.1477 1.27162013 0)
(116.924795 1.27011405 0)
(116.705936 1.26743546 0)
(116.491298 1.26260847 0)
(116.28134 1.25490998 0)
(116.076669 1.24404802 0)
(115.87789 1.23009189 0)
(115.685512 1.21328764 0)
(115.499917 1.19388447 0)
(115.321382 1.17203898 0)
(115.150112 1.14780007 0)
(114.986274 1.1211408 0)
(114.830014 1.09199871 0)
(114.681463 1.06030208 0)
(114.540745 1.02597827 0)
(114.407974 0.988951283 0)
(114.283265 0.949137232 0)
(114.166744 0.906442949 0)
(114.058554 0.860767988 0)
(113.958868 0.812007655 0)
(113.867905 0.760052459 0)
(113.785927 0.704778662 0)
(113.713228 0.646006901 0)
(113.650084 0.583498922 0)
(113.596708 0.517043347 0)
(113.553269 0.446412541 0)
(113.519925 0.371351874 0)
(113.496854 0.291744439 0)
(113.484386 0.207709857 0)
(113.483022 0.119698729 0)
(113.49445 0.0283460351 0)
(113.520916 -0.0659962703 0)
(113.560891 -0.160800903 0)
(113.614533 -0.256820802 0)
(113.683548 -0.354863618 0)
(113.768429 -0.454626177 0)
(113.869358 -0.555579497 0)
(113.986609 -0.657245566 0)
(114.120311 -0.759008146 0)
(114.270419 -0.860088689 0)
(114.436756 -0.959610143 0)
(114.618989 -1.05662078 0)
(114.816592 -1.15010713 0)
(115.028843 -1.23902035 0)
(115.254813 -1.3223074 0)
(115.493373 -1.39894244 0)
(115.743197 -1.46795901 0)
(116.002777 -1.52848253 0)
(116.270445 -1.57976092 0)
(116.544405 -1.62119129 0)
(116.82276 -1.65234151 0)
(117.103556 -1.6729652 0)
(117.384824 -1.6830091 0)
(117.664623 -1.68261266 0)
(117.941081 -1.67209994 0)
(118.21244 -1.6519645 0)
(118.477079 -1.62284857 0)
(118.733549 -1.58551776 0)
(118.980594 -1.54083329 0)
(119.217153 -1.48972291 0)
(119.442375 -1.43315225 0)
(119.655611 -1.37209786 0)
(119.856411 -1.30752279 0)
(120.044505 -1.24035547 0)
(120.219796 -1.1714724 0)
(120.382335 -1.10168464 0)
(120.532307 -1.0317281 0)
(120.670006 -0.96225739 0)
(120.795821 -0.89384294 0)
(120.910214 -0.826970712 0)
(121.013704 -0.762044201 0)
(121.106853 -0.699388201 0)
(121.190251 -0.639253803 0)
(121.264501 -0.581824468 0)
(121.330216 -0.527222947 0)
(121.388005 -0.475518568 0)
(121.438467 -0.426734684 0)
(121.482189 -0.380856074 0)
(121.51974 -0.337835975 0)
(121.551663 -0.29760289 0)
(121.57848 -0.260068189 0)
(121.600684 -0.225134247 0)
(121.618741 -0.192700936 0)
(121.633083 -0.162669824 0)
(121.644105 -0.134947461 0)
(121.65216 -0.109445475 0)
(121.657555 -0.0860746214 0)
(121.660566 -0.0647385573 0)
(121.661448 -0.0453332604 0)
(121.660449 -0.0277430648 0)
(121.657827 -0.0118315378 0)
(121.653917 0.00257128734 0)
(121.648969 0.0157788505 0)
(121.642835 0.0276664971 0)
(121.635771 0.0381992896 0)
(121.627886 0.0474968592 0)
(121.619273 0.0556739613 0)
(121.610024 0.0628315426 0)
(121.60022 0.0690698129 0)
(121.589942 0.0744805969 0)
(121.579268 0.0791447215 0)
(121.56827 0.0831344212 0)
(121.557014 0.0865146778 0)
(121.545562 0.089343754 0)
(121.533966 0.0916738788 0)
(121.522274 0.093551978 0)
(121.510529 0.0950203589 0)
(121.498768 0.0961173349 0)
(121.487022 0.0968777698 0)
(121.47532 0.0973335134 0)
(121.463685 0.0975137464 0)
(121.452139 0.0974452464 0)
(121.4407 0.0971525961 0)
(121.429384 0.0966583403 0)
(121.418203 0.0959831079 0)
(121.40717 0.0951457102 0)
(121.396296 0.0941632214 0)
(121.385587 0.0930510565 0)
(121.375053 0.0918230604 0)
(121.3647 0.0904916075 0)
(121.354532 0.0890677191 0)
(121.344555 0.0875612014 0)
(121.33477 0.085980775 0)
(121.325183 0.0843341795 0)
(121.315793 0.0826280739 0)
(121.306605 0.0808678961 0)
(121.29762 0.0790580211 0)
(121.288836 0.0772011545 0)
(121.280271 0.0753004622 0)
(121.271873 0.0733485494 0)
(121.263825 0.0713721279 0)
(121.255513 0.0692372587 0)
(121.249132 0.0674628607 0)
(121.234638 0.0638220503 0)
(121.69374 -0.0223942659 0)
(121.701769 -0.0814556592 0)
(121.726965 -0.152210423 0)
(121.769263 -0.22793671 0)
(121.828439 -0.296573239 0)
(121.901307 -0.343484884 0)
(121.982287 -0.357139256 0)
(122.064282 -0.33302056 0)
(122.139797 -0.273860302 0)
(122.202148 -0.187753855 0)
(122.246393 -0.0859334364 0)
(122.271665 0.0187662066 0)
(122.280629 0.11568119 0)
(122.272823 0.196920875 0)
(122.250802 0.256665326 0)
(122.218604 0.292199742 0)
(122.180617 0.303593976 0)
(122.140993 0.292882835 0)
(122.103481 0.263377764 0)
(122.071289 0.21943391 0)
(122.046903 0.166799972 0)
(122.031791 0.113151852 0)
(122.02601 0.068064325 0)
(122.027756 0.0417696918 0)
(122.03307 0.043166162 0)
(122.036127 0.0777204455 0)
(122.030285 0.145810956 0)
(122.009325 0.242321072 0)
(121.968359 0.357801185 0)
(121.904449 0.480566284 0)
(121.816865 0.598947885 0)
(121.706976 0.70310789 0)
(121.577812 0.786094708 0)
(121.433477 0.844133784 0)
(121.278565 0.876368715 0)
(121.117679 0.884358716 0)
(120.955076 0.871607017 0)
(120.7944 0.84326886 0)
(120.63843 0.806010847 0)
(120.488806 0.767833523 0)
(120.345727 0.737603974 0)
(120.207714 0.724116894 0)
(120.071594 0.734697457 0)
(119.932837 0.773614476 0)
(119.786241 0.840778842 0)
(119.62687 0.931244672 0)
(119.451017 1.03585574 0)
(119.256952 1.14302713 0)
(119.045255 1.24124298 0)
(118.818635 1.32155109 0)
(118.581286 1.37928816 0)
(118.337952 1.41452078 0)
(118.092995 1.43114749 0)
(117.84972 1.43508382 0)
(117.610112 1.43223957 0)
(117.374992 1.42697987 0)
(117.144426 1.42147212 0)
(116.918214 1.41591543 0)
(116.696255 1.40932287 0)
(116.47872 1.40040709 0)
(116.266045 1.38821407 0)
(116.058807 1.37236413 0)
(115.857589 1.35296469 0)
(115.662886 1.33036739 0)
(115.475072 1.30493615 0)
(115.294412 1.27691702 0)
(115.121097 1.24641558 0)
(114.955275 1.21343787 0)
(114.797072 1.17794344 0)
(114.646598 1.13987981 0)
(114.503954 1.09919272 0)
(114.369237 1.05582127 0)
(114.242544 1.00969008 0)
(114.123982 0.960705123 0)
(114.01368 0.908754382 0)
(113.911791 0.853710571 0)
(113.818504 0.795432659 0)
(113.734045 0.733764418 0)
(113.658666 0.668530969 0)
(113.59264 0.599550816 0)
(113.53625 0.526668721 0)
(113.489811 0.449803631 0)
(113.453755 0.36897373 0)
(113.428611 0.284310258 0)
(113.414901 0.19604369 0)
(113.412993 0.104323074 0)
(113.421729 0.00928342152 0)
(113.443858 -0.0890915051 0)
(113.480339 -0.190792737 0)
(113.532013 -0.294987831 0)
(113.599293 -0.401468891 0)
(113.682566 -0.510062732 0)
(113.782257 -0.620309849 0)
(113.898773 -0.731612597 0)
(114.03237 -0.843256005 0)
(114.183137 -0.954379464 0)
(114.35101 -1.06399817 0)
(114.535745 -1.17103007 0)
(114.736885 -1.27431496 0)
(114.953746 -1.37264003 0)
(115.185408 -1.46477353 0)
(115.430708 -1.54950322 0)
(115.68825 -1.62567799 0)
(115.956414 -1.69225082 0)
(116.233386 -1.74831959 0)
(116.517192 -1.79316278 0)
(116.805737 -1.82626755 0)
(117.096857 -1.84734864 0)
(117.38837 -1.85635689 0)
(117.678128 -1.85347755 0)
(117.964069 -1.83911868 0)
(118.244264 -1.813891 0)
(118.516953 -1.77858064 0)
(118.780578 -1.73411669 0)
(119.033803 -1.68153586 0)
(119.275527 -1.62194598 0)
(119.504885 -1.55649052 0)
(119.721246 -1.48631571 0)
(119.924199 -1.41254135 0)
(120.113536 -1.33623623 0)
(120.289235 -1.25839855 0)
(120.451434 -1.17994138 0)
(120.600411 -1.10168286 0)
(120.736554 -1.02434074 0)
(120.860346 -0.948530854 0)
(120.972341 -0.87476867 0)
(121.073142 -0.803473405 0)
(121.163387 -0.734974189 0)
(121.243735 -0.669517532 0)
(121.314849 -0.607275551 0)
(121.377393 -0.548354653 0)
(121.432017 -0.492804327 0)
(121.479357 -0.440626036 0)
(121.520023 -0.391781871 0)
(121.554601 -0.346202216 0)
(121.583649 -0.303792767 0)
(121.607696 -0.264440488 0)
(121.627239 -0.228018051 0)
(121.642741 -0.194387866 0)
(121.65464 -0.163404596 0)
(121.663352 -0.134917086 0)
(121.669271 -0.10877635 0)
(121.672768 -0.0848464292 0)
(121.674169 -0.0630042783 0)
(121.673733 -0.0431329321 0)
(121.671646 -0.025119715 0)
(121.668032 -0.00886561869 0)
(121.663206 0.00572313054 0)
(121.657314 0.0187572772 0)
(121.650372 0.030444024 0)
(121.642534 0.0408678177 0)
(121.633899 0.0501124699 0)
(121.624568 0.0582701885 0)
(121.614642 0.0654289879 0)
(121.60421 0.0716755438 0)
(121.593357 0.0770932635 0)
(121.582159 0.0817597286 0)
(121.570686 0.0857460791 0)
(121.559004 0.0891169711 0)
(121.547168 0.0919308086 0)
(121.53523 0.0942402545 0)
(121.523234 0.0960928654 0)
(121.511219 0.0975317304 0)
(121.499217 0.0985960558 0)
(121.487259 0.0993216712 0)
(121.475367 0.0997414269 0)
(121.463565 0.0998854944 0)
(121.451869 0.0997815816 0)
(121.440297 0.0994550951 0)
(121.428862 0.0989292594 0)
(121.417575 0.0982252184 0)
(121.406448 0.0973621297 0)
(121.39549 0.0963572526 0)
(121.384708 0.0952260452 0)
(121.374109 0.0939822746 0)
(121.363699 0.0926381375 0)
(121.353482 0.0912043937 0)
(121.343461 0.0896905082 0)
(121.333639 0.0881047789 0)
(121.324018 0.0864544356 0)
(121.314599 0.0847456764 0)
(121.305383 0.0829836373 0)
(121.296373 0.0811725132 0)
(121.287563 0.0793148839 0)
(121.278969 0.0774141732 0)
(121.27054 0.0754631593 0)
(121.262455 0.0734912823 0)
(121.254121 0.0713657848 0)
(121.247707 0.0696139677 0)
(121.233457 0.0660407475 0)
(121.693635 -0.0283838658 0)
(121.700956 -0.104016424 0)
(121.725607 -0.195453168 0)
(121.768355 -0.293984028 0)
(121.829541 -0.383944514 0)
(121.906143 -0.446330622 0)
(121.992294 -0.466040422 0)
(122.080244 -0.436978551 0)
(122.161684 -0.362473795 0)
(122.229206 -0.25289108 0)
(122.277605 -0.122588366 0)
(122.304625 0.0132072019 0)
(122.313449 0.140101788 0)
(122.303392 0.245910194 0)
(122.277925 0.323466332 0)
(122.241616 0.369747598 0)
(122.199321 0.384966072 0)
(122.155746 0.371720132 0)
(122.115198 0.33415954 0)
(122.081382 0.277723122 0)
(122.057159 0.209644041 0)
(122.044157 0.139674977 0)
(122.042221 0.0801143419 0)
(122.049066 0.0444485437 0)
(122.060479 0.0445286352 0)
(122.070642 0.0874029188 0)
(122.072495 0.173336321 0)
(122.058832 0.295657143 0)
(122.023766 0.442249099 0)
(121.963697 0.598184956 0)
(121.877649 0.748609556 0)
(121.767098 0.881066454 0)
(121.635447 0.986829612 0)
(121.487339 1.06122371 0)
(121.327985 1.10322883 0)
(121.162617 1.11478944 0)
(120.996076 1.10019793 0)
(120.832489 1.06574742 0)
(120.674969 1.01961324 0)
(120.525292 0.971706516 0)
(120.383596 0.933143363 0)
(120.248178 0.91506644 0)
(120.115509 0.926836559 0)
(119.980571 0.973965472 0)
(119.83756 1.05642605 0)
(119.680884 1.16801494 0)
(119.506249 1.29719616 0)
(119.311543 1.42938446 0)
(119.09726 1.5501096 0)
(118.866319 1.64814725 0)
(118.623336 1.71766747 0)
(118.373568 1.75877422 0)
(118.121871 1.77637823 0)
(117.87193 1.777929 0)
(117.62597 1.77088514 0)
(117.384904 1.76078293 0)
(117.148792 1.75040688 0)
(116.917367 1.74006454 0)
(116.690453 1.72855932 0)
(116.46816 1.71430107 0)
(116.250884 1.69610798 0)
(116.039184 1.67351806 0)
(115.83363 1.64668678 0)
(115.634704 1.61608449 0)
(115.44276 1.58220334 0)
(115.258033 1.54538938 0)
(115.08068 1.50580972 0)
(114.910812 1.4635007 0)
(114.748515 1.41843312 0)
(114.593863 1.37055543 0)
(114.446921 1.31980702 0)
(114.307756 1.26611263 0)
(114.176437 1.20937282 0)
(114.053048 1.14945917 0)
(113.937699 1.08621579 0)
(113.83053 1.01946421 0)
(113.731721 0.949008777 0)
(113.641491 0.87464107 0)
(113.560097 0.796144648 0)
(113.487835 0.713304311 0)
(113.425033 0.625922443 0)
(113.372053 0.533832097 0)
(113.329295 0.436898982 0)
(113.297177 0.33497381 0)
(113.276043 0.227901016 0)
(113.266277 0.115582709 0)
(113.26956 -0.00185557754 0)
(113.289124 -0.122961878 0)
(113.322606 -0.247546697 0)
(113.371086 -0.375672063 0)
(113.43549 -0.507099295 0)
(113.516573 -0.641357419 0)
(113.614973 -0.777799793 0)
(113.731231 -0.915649445 0)
(113.865766 -1.053984 0)
(114.018838 -1.1917131 0)
(114.190525 -1.32759141 0)
(114.380691 -1.46024421 0)
(114.588957 -1.58819454 0)
(114.814669 -1.70989865 0)
(115.056886 -1.82379032 0)
(115.314374 -1.92833035 0)
(115.585605 -2.02205916 0)
(115.868775 -2.10365059 0)
(116.161838 -2.17196348 0)
(116.462545 -2.22608792 0)
(116.768495 -2.2653826 0)
(117.077203 -2.28950081 0)
(117.386158 -2.29840286 0)
(117.692895 -2.29235431 0)
(117.995056 -2.27191033 0)
(118.290448 -2.23788789 0)
(118.577092 -2.19132803 0)
(118.853255 -2.13345133 0)
(119.117481 -2.06560977 0)
(119.368595 -1.98923788 0)
(119.605707 -1.90580587 0)
(119.828203 -1.81677698 0)
(120.035727 -1.72357035 0)
(120.228156 -1.62753041 0)
(120.405576 -1.52990326 0)
(120.568252 -1.43181963 0)
(120.716594 -1.33428429 0)
(120.851135 -1.23817095 0)
(120.972498 -1.14422201 0)
(121.081373 -1.05305219 0)
(121.178496 -0.965154996 0)
(121.264626 -0.880911439 0)
(121.340536 -0.800599948 0)
(121.406991 -0.724407066 0)
(121.464746 -0.652438834 0)
(121.51453 -0.584732373 0)
(121.557042 -0.521266736 0)
(121.592953 -0.461972638 0)
(121.622895 -0.406741615 0)
(121.647462 -0.355435342 0)
(121.667213 -0.307894426 0)
(121.682669 -0.263945571 0)
(121.694315 -0.223408421 0)
(121.7026 -0.186105093 0)
(121.707923 -0.151868583 0)
(121.710617 -0.120542668 0)
(121.710958 -0.0919749436 0)
(121.709198 -0.0660151003 0)
(121.705577 -0.0425142164 0)
(121.700319 -0.021315239 0)
(121.693696 -0.00222279361 0)
(121.686281 0.0149228641 0)
(121.677985 0.0302587291 0)
(121.668831 0.0439316041 0)
(121.658941 0.056059688 0)
(121.648434 0.0667635076 0)
(121.637406 0.0761658717 0)
(121.625942 0.0843807312 0)
(121.61412 0.0915148271 0)
(121.60201 0.0976683338 0)
(121.589676 0.102933678 0)
(121.577174 0.107395552 0)
(121.564556 0.111131347 0)
(121.55187 0.114211481 0)
(121.539155 0.116699813 0)
(121.526449 0.118654167 0)
(121.513786 0.120126885 0)
(121.501192 0.121165374 0)
(121.488693 0.121812621 0)
(121.476311 0.122107657 0)
(121.464064 0.122085976 0)
(121.451966 0.121779882 0)
(121.440031 0.121218796 0)
(121.428271 0.120429496 0)
(121.416692 0.119436338 0)
(121.405304 0.11826143 0)
(121.394113 0.116924785 0)
(121.383121 0.115444468 0)
(121.372333 0.113836719 0)
(121.361753 0.112116076 0)
(121.351382 0.110295492 0)
(121.341221 0.10838644 0)
(121.331272 0.106399004 0)
(121.321535 0.104341944 0)
(121.31201 0.102222737 0)
(121.302696 0.100047558 0)
(121.293594 0.0978214508 0)
(121.284699 0.0955475645 0)
(121.276024 0.0932303063 0)
(121.267515 0.0908614759 0)
(121.259351 0.0884780013 0)
(121.250904 0.0859208737 0)
(121.244408 0.0838265512 0)
(121.229677 0.0795632182 0)
(121.693767 -0.0336629974 0)
(121.701702 -0.123418557 0)
(121.727325 -0.232001117 0)
(121.771284 -0.349467985 0)
(121.833716 -0.4577686 0)
(121.911423 -0.534787337 0)
(121.998533 -0.562667454 0)
(122.087468 -0.533768849 0)
(122.170154 -0.451354831 0)
(122.23934 -0.327113816 0)
(122.289914 -0.177832924 0)
(122.319635 -0.0220368951 0)
(122.331279 0.1231726 0)
(122.323356 0.24499037 0)
(122.299743 0.335125833 0)
(122.26501 0.389765045 0)
(122.223951 0.408962597 0)
(122.181311 0.395507582 0)
(122.141448 0.353964464 0)
(122.108144 0.290420928 0)
(122.084383 0.213071877 0)
(122.072012 0.133081987 0)
(122.071361 0.0645579093 0)
(122.080592 0.0228455507 0)
(122.095134 0.021699516 0)
(122.108262 0.0697580705 0)
(122.112579 0.167899763 0)
(122.101213 0.30892513 0)
(122.068611 0.479080197 0)
(122.011231 0.661092498 0)
(121.927934 0.837601744 0)
(121.819945 0.993920059 0)
(121.690428 1.11963882 0)
(121.543849 1.20906359 0)
(121.385324 1.26078701 0)
(121.220057 1.27688217 0)
(121.052917 1.26216747 0)
(120.888099 1.22379244 0)
(120.728838 1.17110562 0)
(120.577083 1.11550669 0)
(120.433162 1.06986845 0)
(120.295514 1.04721248 0)
(120.160672 1.05863322 0)
(120.023605 1.11087483 0)
(119.87846 1.20428885 0)
(119.719572 1.33197206 0)
(119.542547 1.48062713 0)
(119.345139 1.63315676 0)
(119.127691 1.77237963 0)
(118.892999 1.88479736 0)
(118.645631 1.96325618 0)
(118.390903 2.00770559 0)
(118.133809 2.02393451 0)
(117.878224 2.02088484 0)
(117.626558 2.00759557 0)
(117.379878 1.99083184 0)
(117.138345 1.97403579 0)
(116.901749 1.9576265 0)
(116.669935 1.94016893 0)
(116.443019 1.91973019 0)
(116.221398 1.89487041 0)
(116.005626 1.86503597 0)
(115.796266 1.83044121 0)
(115.593788 1.79169816 0)
(115.398521 1.74945303 0)
(115.210668 1.70417481 0)
(115.030346 1.65611085 0)
(114.857621 1.60534417 0)
(114.692532 1.55187335 0)
(114.535105 1.495666 0)
(114.385364 1.43667509 0)
(114.243332 1.37483197 0)
(114.109038 1.31003401 0)
(113.982536 1.24213859 0)
(113.863903 1.17096509 0)
(113.753254 1.09630201 0)
(113.650746 1.01791557 0)
(113.55658 0.935557803 0)
(113.471002 0.848974476 0)
(113.394309 0.757914312 0)
(113.326842 0.662140542 0)
(113.268996 0.561442744 0)
(113.221221 0.455648415 0)
(113.18403 0.344639391 0)
(113.158012 0.228379851 0)
(113.143871 0.107016523 0)
(113.142574 -0.0191770736 0)
(113.157132 -0.150649996 0)
(113.185913 -0.286985565 0)
(113.230034 -0.427851471 0)
(113.290529 -0.57290232 0)
(113.368284 -0.721670207 0)
(113.464113 -0.873503606 0)
(113.578766 -1.02754945 0)
(113.712872 -1.18275365 0)
(113.866898 -1.33785917 0)
(114.041105 -1.49141474 0)
(114.235516 -1.6417959 0)
(114.449868 -1.78723498 0)
(114.683582 -1.92586221 0)
(114.935728 -2.05575943 0)
(115.205015 -2.1750237 0)
(115.48979 -2.28183752 0)
(115.788053 -2.37454168 0)
(116.097492 -2.45170553 0)
(116.415537 -2.51218957 0)
(116.739425 -2.55519561 0)
(117.066282 -2.58030088 0)
(117.393205 -2.58747338 0)
(117.717347 -2.57706804 0)
(118.036002 -2.54980414 0)
(118.346675 -2.50672673 0)
(118.647136 -2.44915523 0)
(118.935467 -2.37862357 0)
(119.210089 -2.29681635 0)
(119.469768 -2.20550511 0)
(119.713612 -2.10648812 0)
(119.941057 -2.00153687 0)
(120.151837 -1.89235057 0)
(120.345953 -1.78051993 0)
(120.523642 -1.66750033 0)
(120.685327 -1.55459399 0)
(120.831594 -1.44294014 0)
(120.963141 -1.33351221 0)
(121.08076 -1.22712074 0)
(121.185298 -1.12442075 0)
(121.277634 -1.02592226 0)
(121.358663 -0.932003155 0)
(121.42927 -0.842923424 0)
(121.490321 -0.758839867 0)
(121.542655 -0.679820755 0)
(121.587074 -0.605859741 0)
(121.624334 -0.536888933 0)
(121.65515 -0.472791389 0)
(121.680187 -0.413412617 0)
(121.700061 -0.35857003 0)
(121.715341 -0.308061012 0)
(121.726547 -0.261670398 0)
(121.734148 -0.21917591 0)
(121.738564 -0.180351811 0)
(121.740185 -0.144972172 0)
(121.739385 -0.112811695 0)
(121.736528 -0.083645687 0)
(121.731936 -0.0572534248 0)
(121.725876 -0.0334246674 0)
(121.718589 -0.0119650815 0)
(121.710387 0.0073169024 0)
(121.701389 0.0246184541 0)
(121.691465 0.0400587791 0)
(121.680797 0.0537786618 0)
(121.669509 0.0659209572 0)
(121.657705 0.0766138428 0)
(121.645478 0.0859792936 0)
(121.632912 0.0941330102 0)
(121.62008 0.101183516 0)
(121.60705 0.107232302 0)
(121.59388 0.112373444 0)
(121.580623 0.116693531 0)
(121.567328 0.120271965 0)
(121.554036 0.123181315 0)
(121.540782 0.125487725 0)
(121.527597 0.127251383 0)
(121.51451 0.128527006 0)
(121.50154 0.129364311 0)
(121.488709 0.129808464 0)
(121.476031 0.129900483 0)
(121.463521 0.129677599 0)
(121.45119 0.129173578 0)
(121.439047 0.128419008 0)
(121.427102 0.12744155 0)
(121.415359 0.126266164 0)
(121.403825 0.124915321 0)
(121.392504 0.123409188 0)
(121.3814 0.121765799 0)
(121.370514 0.120001232 0)
(121.359849 0.118129762 0)
(121.349406 0.116164013 0)
(121.339183 0.114115105 0)
(121.329182 0.111992772 0)
(121.319401 0.109805461 0)
(121.309838 0.10756042 0)
(121.300491 0.105263701 0)
(121.29136 0.102920386 0)
(121.282436 0.100533768 0)
(121.273732 0.0981089134 0)
(121.265193 0.0956376707 0)
(121.256995 0.0931611906 0)
(121.24853 0.0905146284 0)
(121.242009 0.0883668823 0)
(121.227505 0.0840266115 0)
(121.693872 -0.0391495961 0)
(121.702293 -0.143889525 0)
(121.728809 -0.271120166 0)
(121.774224 -0.409424268 0)
(121.838838 -0.53767469 0)
(121.919484 -0.629760297 0)
(122.010101 -0.664454085 0)
(122.102761 -0.632512473 0)
(122.189006 -0.537525156 0)
(122.261272 -0.393035133 0)
(122.314017 -0.218693408 0)
(122.344259 -0.0362677479 0)
(122.356096 0.134261894 0)
(122.349389 0.277587512 0)
(122.326263 0.38379613 0)
(122.291364 0.448431434 0)
(122.249945 0.47149372 0)
(122.207128 0.456145429 0)
(122.167634 0.407635808 0)
(122.135545 0.333016719 0)
(122.11403 0.241828115 0)
(122.104871 0.147065777 0)
(122.107769 0.0652885863 0)
(122.120362 0.0148460867 0)
(122.138539 0.011763565 0)
(122.156128 0.0661948988 0)
(122.1658 0.179598565 0)
(122.159962 0.343627509 0)
(122.132228 0.542242695 0)
(122.078581 0.755302083 0)
(121.997737 0.96245565 0)
(121.890944 1.14640779 0)
(121.761494 1.29485666 0)
(121.614068 1.40101866 0)
(121.454059 1.46312591 0)
(121.286978 1.48347693 0)
(121.117994 1.46757287 0)
(120.951557 1.42363885 0)
(120.791041 1.36249286 0)
(120.638404 1.29740573 0)
(120.493879 1.24344752 0)
(120.355779 1.21594001 0)
(120.220512 1.22800766 0)
(120.082913 1.28770586 0)
(119.93694 1.39559538 0)
(119.776686 1.54371378 0)
(119.597499 1.71657474 0)
(119.396928 1.89419504 0)
(119.175215 2.0564314 0)
(118.935185 2.18738577 0)
(118.681545 2.27853878 0)
(118.419827 2.32967779 0)
(118.155279 2.34746426 0)
(117.892034 2.34232227 0)
(117.63273 2.32486786 0)
(117.378606 2.30311407 0)
(117.12994 2.28120868 0)
(116.886581 2.25975206 0)
(116.648397 2.2371451 0)
(116.415503 2.2111734 0)
(116.188281 2.18017673 0)
(115.967269 2.14352374 0)
(115.753013 2.10148506 0)
(115.545951 2.05480478 0)
(115.346378 2.00427361 0)
(115.154452 1.95047664 0)
(114.970233 1.89373634 0)
(114.793725 1.83417624 0)
(114.624902 1.77181296 0)
(114.463724 1.7066187 0)
(114.310147 1.63854122 0)
(114.164132 1.56749644 0)
(114.025653 1.49335509 0)
(113.894709 1.41593653 0)
(113.771339 1.33501214 0)
(113.655621 1.25031467 0)
(113.547692 1.16154933 0)
(113.447742 1.06840376 0)
(113.356018 0.970557028 0)
(113.272831 0.86768848 0)
(113.198553 0.759487544 0)
(113.133616 0.645664098 0)
(113.078522 0.525959493 0)
(113.033846 0.400156279 0)
(113.000235 0.268090619 0)
(112.978419 0.129654647 0)
(112.969687 -0.0152179508 0)
(112.977633 -0.166384842 0)
(113.000441 -0.323599051 0)
(113.03914 -0.486540978 0)
(113.094811 -0.654815211 0)
(113.168542 -0.827856552 0)
(113.261392 -1.00488809 0)
(113.37435 -1.18491164 0)
(113.508292 -1.36669442 0)
(113.663934 -1.5487548 0)
(113.841774 -1.7293639 0)
(114.042037 -1.9065658 0)
(114.264614 -2.07821301 0)
(114.509015 -2.24201741 0)
(114.774324 -2.3956168 0)
(115.059175 -2.53665473 0)
(115.361748 -2.66286983 0)
(115.679782 -2.77218977 0)
(116.010621 -2.86282353 0)
(116.351276 -2.93334497 0)
(116.698513 -2.98276054 0)
(117.048952 -3.01055568 0)
(117.399181 -3.01671562 0)
(117.745863 -3.00171946 0)
(118.085841 -2.96650854 0)
(118.416233 -2.91243289 0)
(118.734499 -2.84118084 0)
(119.038491 -2.75469816 0)
(119.326484 -2.65510319 0)
(119.597184 -2.54460353 0)
(119.849709 -2.42541907 0)
(120.083571 -2.29971499 0)
(120.298632 -2.16954657 0)
(120.495059 -2.03681669 0)
(120.67328 -1.90324603 0)
(120.833933 -1.77035486 0)
(120.977814 -1.63945499 0)
(121.10584 -1.51165018 0)
(121.219007 -1.3878434 0)