/*--------------------------------*- C++ -*----------------------------------*\
| =========                 |                                                 |
| \\      /  F ield         | OpenFOAM: The Open Source CFD Toolbox           |
|  \\    /   O peration     | Version:  v2012                                 |
|   \\  /    A nd           | Website:  www.openfoam.com                      |
|    \\/     M anipulation  |                                                 |
\*---------------------------------------------------------------------------*/
FoamFile
{
    version     2.0;
    format      ascii;
    class       volVectorField;
    location    "2.89";
    object      HbyA;
}
// * * * * * * * * * * * * * * * * * * * * * * * * * * * * * * * * * * * * * //

dimensions      [0 1 -1 0 0 0 0];


internalField   nonuniform List<vector> 
28416
(
(0.10000091 -7.78686518e-06 0)
(0.100010384 -2.87842208e-05 0)
(0.100031538 -5.45259427e-05 0)
(0.100065693 -8.20269039e-05 0)
(0.100111917 -0.000106112649 0)
(0.100167454 -0.000120840717 0)
(0.100228007 -0.000121759878 0)
(0.10028825 -0.000107415111 0)
(0.100342645 -7.93279634e-05 0)
(0.100386114 -4.09675076e-05 0)
(0.100414625 3.73367333e-06 0)
(0.10042981 5.19173035e-05 0)
(0.100435 9.71608702e-05 0)
(0.100430055 0.000134150837 0)
(0.100415949 0.000160372461 0)
(0.100395235 0.000174717001 0)
(0.100370619 0.000177276967 0)
(0.100344669 0.000169183341 0)
(0.100319723 0.000152246172 0)
(0.100297744 0.000128790734 0)
(0.100280165 0.000101759861 0)
(0.100267656 7.48960394e-05 0)
(0.100259785 5.26649932e-05 0)
(0.100255115 3.98101155e-05 0)
(0.100251178 4.00888697e-05 0)
(0.100244135 5.5341479e-05 0)
(0.100229349 8.52202842e-05 0)
(0.100202571 0.000127229634 0)
(0.100160773 0.000177137395 0)
(0.10010244 0.000229811788 0)
(0.100027582 0.000280165449 0)
(0.0999375352 0.000323889178 0)
(0.0998345948 0.000357875032 0)
(0.099721579 0.000380369639 0)
(0.0996014648 0.000390943533 0)
(0.0994771321 0.000390364542 0)
(0.099351198 0.000380442138 0)
(0.0992258871 0.000363874066 0)
(0.0991028804 0.000344085327 0)
(0.0989831121 0.000325014949 0)
(0.0988665379 0.000310795625 0)
(0.0987519657 0.000305296382 0)
(0.0986370732 0.00031155342 0)
(0.0985187086 0.00033118109 0)
(0.0983934567 0.000363913786 0)
(0.0982583331 0.000407455544 0)
(0.0981114091 0.000457772657 0)
(0.0979521917 0.000509838879 0)
(0.0977816697 0.00055867244 0)
(0.0976020316 0.000600371183 0)
(0.0974161536 0.000632827919 0)
(0.0972270111 0.000655913162 0)
(0.0970371746 0.0006711058 0)
(0.0968485093 0.00068074963 0)
(0.0966621209 0.000687227881 0)
(0.0964785081 0.000692334865 0)
(0.0962978252 0.000697002467 0)
(0.0961201411 0.000701376922 0)
(0.095945615 0.000705114718 0)
(0.0957745578 0.000707722497 0)
(0.0956074023 0.000708803908 0)
(0.095444629 0.00070815881 0)
(0.095286694 0.000705758244 0)
(0.0951339854 0.000701659423 0)
(0.0949868135 0.00069592301 0)
(0.0948454213 0.000688566797 0)
(0.0947100042 0.000679558503 0)
(0.0945807253 0.000668831736 0)
(0.0944577254 0.000656306549 0)
(0.0943411281 0.000641903403 0)
(0.0942310423 0.000625548475 0)
(0.0941275665 0.000607173544 0)
(0.0940307948 0.000586714709 0)
(0.0939408233 0.000564112515 0)
(0.0938577592 0.000539313949 0)
(0.0937817319 0.000512275342 0)
(0.0937129095 0.000482963806 0)
(0.0936515374 0.000451353649 0)
(0.0935979273 0.00041739824 0)
(0.0935523249 0.000381022943 0)
(0.0935149461 0.000342177802 0)
(0.0934860846 0.000300767466 0)
(0.0934659783 0.000256616091 0)
(0.093454702 0.00020954023 0)
(0.0934521362 0.000159429153 0)
(0.093458088 0.000106442167 0)
(0.093471755 5.09942878e-05 0)
(0.0934919462 -4.89300648e-06 0)
(0.0935220428 -5.92658119e-05 0)
(0.093566108 -0.000113816997 0)
(0.0936234543 -0.000169579063 0)
(0.0936930779 -0.000226427273 0)
(0.0937751007 -0.000284094955 0)
(0.0938697248 -0.000342344773 0)
(0.0939768521 -0.000400819953 0)
(0.0940963029 -0.000459060779 0)
(0.0942278653 -0.000516563259 0)
(0.0943712178 -0.000572792082 0)
(0.0945259007 -0.000627181277 0)
(0.094691321 -0.000679142999 0)
(0.0948667515 -0.000728081236 0)
(0.0950513321 -0.000773408564 0)
(0.0952440774 -0.000814565993 0)
(0.0954438885 -0.000851043983 0)
(0.0956495679 -0.000882401969 0)
(0.0958598365 -0.000908284472 0)
(0.0960733549 -0.000928432792 0)
(0.0962887476 -0.000942691993 0)
(0.0965046285 -0.000951013441 0)
(0.0967196289 -0.00095345343 0)
(0.0969324242 -0.000950168393 0)
(0.0971417588 -0.000941407156 0)
(0.0973464685 -0.000927500627 0)
(0.0975454989 -0.000908849355 0)
(0.0977379184 -0.000885909545 0)
(0.0979229281 -0.000859178172 0)
(0.0980998658 -0.000829177909 0)
(0.0982682068 -0.000796442567 0)
(0.0984275601 -0.000761503651 0)
(0.0985776632 -0.000724878426 0)
(0.0987183721 -0.000687059861 0)
(0.0988496516 -0.000648508523 0)
(0.0989715634 -0.000609646416 0)
(0.0990842538 -0.000570852692 0)
(0.0991879413 -0.000532461155 0)
(0.0992829047 -0.000494759415 0)
(0.0993694713 -0.000457989459 0)
(0.099448006 -0.000422349185 0)
(0.0995189011 -0.000387994371 0)
(0.0995825683 -0.00035504113 0)
(0.0996394326 -0.000323569427 0)
(0.099689926 -0.000293627697 0)
(0.0997344816 -0.000265237379 0)
(0.0997735275 -0.000238396306 0)
(0.0998074852 -0.000213081708 0)
(0.0998367684 -0.000189254644 0)
(0.0998617819 -0.000166865735 0)
(0.0998829184 -0.000145859823 0)
(0.0999005554 -0.00012617917 0)
(0.0999150559 -0.000107767894 0)
(0.0999267667 -9.05784589e-05 0)
(0.0999360136 -7.45783257e-05 0)
(0.0999430915 -5.97550451e-05 0)
(0.099948252 -4.61160759e-05 0)
(0.0999516858 -3.36758884e-05 0)
(0.0999535128 -2.24263011e-05 0)
(0.099953783 -1.23090635e-05 0)
(0.0999524389 -3.17108534e-06 0)
(0.0999499136 5.29798271e-06 0)
(0.0999467028 1.29166213e-05 0)
(0.0999426998 1.96422484e-05 0)
(0.0999378412 2.55712542e-05 0)
(0.0999322251 3.07922448e-05 0)
(0.0999259467 3.53790633e-05 0)
(0.0999190866 3.94011445e-05 0)
(0.0999117292 4.29192571e-05 0)
(0.0999039551 4.5984644e-05 0)
(0.0998958359 4.86415246e-05 0)
(0.0998874355 5.0928516e-05 0)
(0.099878812 5.28792083e-05 0)
(0.0998700166 5.45228491e-05 0)
(0.0998610942 5.58851545e-05 0)
(0.0998520839 5.69891383e-05 0)
(0.0998430195 5.78558495e-05 0)
(0.09983393 5.85049184e-05 0)
(0.0998248405 5.89548753e-05 0)
(0.0998157726 5.92232873e-05 0)
(0.0998067454 5.93267791e-05 0)
(0.0997977755 5.92810026e-05 0)
(0.0997888777 5.91005876e-05 0)
(0.099780065 5.87990891e-05 0)
(0.0997713493 5.83889381e-05 0)
(0.0997627407 5.78814012e-05 0)
(0.0997542487 5.72865612e-05 0)
(0.0997458813 5.66133308e-05 0)
(0.0997376454 5.58695101e-05 0)
(0.0997295469 5.50618896e-05 0)
(0.0997215907 5.41963961e-05 0)
(0.0997137808 5.32782579e-05 0)
(0.0997061207 5.23121629e-05 0)
(0.0996986137 5.13022694e-05 0)
(0.0996912624 5.02521814e-05 0)
(0.0996840707 4.91650899e-05 0)
(0.0996770378 4.80434884e-05 0)
(0.099670179 4.6890284e-05 0)
(0.099663459 4.57026335e-05 0)
(0.0996570246 4.44969835e-05 0)
(0.0996504174 4.3193602e-05 0)
(0.09964536 4.21028381e-05 0)
(0.0996364905 3.98112839e-05 0)
(0.100000495 -1.55872881e-05 0)
(0.100007438 -5.67395353e-05 0)
(0.100025648 -0.000106114504 0)
(0.100058284 -0.000158579605 0)
(0.100105491 -0.000205280822 0)
(0.100164736 -0.000235868752 0)
(0.100231353 -0.000242443427 0)
(0.100299276 -0.000222170958 0)
(0.100362009 -0.000177346741 0)
(0.100413844 -0.00011390942 0)
(0.100451505 -3.94156613e-05 0)
(0.100472728 3.85655717e-05 0)
(0.100476602 0.000110921603 0)
(0.100465783 0.000170888989 0)
(0.100444068 0.000214388022 0)
(0.10041488 0.000239563227 0)
(0.100381683 0.00024656811 0)
(0.100347811 0.000237056814 0)
(0.100316261 0.00021363559 0)
(0.100289602 0.000179670403 0)
(0.100269821 0.000139527565 0)
(0.100258014 9.89486606e-05 0)
(0.100254047 6.50251737e-05 0)
(0.100256175 4.54374655e-05 0)
(0.100260905 4.66288728e-05 0)
(0.100263457 7.20954914e-05 0)
(0.100258431 0.000121508298 0)
(0.10024059 0.000190775419 0)
(0.100205776 0.000272912746 0)
(0.100151601 0.000359512796 0)
(0.10007768 0.000442345622 0)
(0.0999854556 0.000514609186 0)
(0.0998777534 0.000571605418 0)
(0.0997582223 0.000610876992 0)
(0.099630812 0.00063198493 0)
(0.0994993709 0.000636150463 0)
(0.0993673721 0.000625943269 0)
(0.0992377163 0.000605098051 0)
(0.0991125422 0.000578421168 0)
(0.0989930082 0.000551649788 0)
(0.0988790632 0.000531089056 0)
(0.0987692896 0.000522909421 0)
(0.0986609213 0.000532133643 0)
(0.0985501239 0.000561526246 0)
(0.0984325574 0.000610731749 0)
(0.0983041493 0.000676017216 0)
(0.0981619125 0.000750828642 0)
(0.0980045835 0.000827106044 0)
(0.0978328836 0.000897021968 0)
(0.0976493104 0.000954634945 0)
(0.0974575223 0.000996961987 0)
(0.0972615101 0.00102417359 0)
(0.0970648088 0.00103892413 0)
(0.0968699721 0.0010451251 0)
(0.0966784162 0.00104662833 0)
(0.0964906058 0.00104625268 0)
(0.0963064406 0.00104539149 0)
(0.0961256675 0.00104418024 0)
(0.095948176 0.00104200458 0)
(0.0957741177 0.00103806219 0)
(0.0956038731 0.00103175844 0)
(0.0954379375 0.00102285306 0)
(0.095276802 0.00101140279 0)
(0.0951208779 0.000997609673 0)
(0.0949704744 0.000981678412 0)
(0.0948258147 0.000963737593 0)
(0.0946870656 0.000943827306 0)
(0.0945543629 0.000921925286 0)
(0.0944278262 0.000897980074 0)
(0.0943075644 0.000871932603 0)
(0.0941936778 0.000843723054 0)
(0.0940862613 0.000813288845 0)
(0.0939854098 0.000780560928 0)
(0.0938912254 0.000745462612 0)
(0.0938038261 0.000707911227 0)
(0.0937233552 0.000667820618 0)
(0.0936499896 0.000625100682 0)
(0.093583945 0.000579649604 0)
(0.0935254617 0.000531319837 0)
(0.0934747657 0.000479915398 0)
(0.093432034 0.000425262424 0)
(0.0933974031 0.000367173684 0)
(0.0933710016 0.00030543974 0)
(0.0933529741 0.000239964459 0)
(0.0933435907 0.000170846269 0)
(0.0933432535 9.84558631e-05 0)
(0.0933533303 2.33156491e-05 0)
(0.0933745541 -5.42840256e-05 0)
(0.0934061641 -0.000132262044 0)
(0.0934488501 -0.000211237137 0)
(0.0935039972 -0.000291873076 0)
(0.0935720081 -0.000373919943 0)
(0.0936530302 -0.000456942097 0)
(0.0937472884 -0.000540545858 0)
(0.0938548931 -0.000624223922 0)
(0.0939758123 -0.00070733558 0)
(0.0941099093 -0.000789159238 0)
(0.09425692 -0.000868912048 0)
(0.0944164262 -0.000945760568 0)
(0.0945878482 -0.00101884245 0)
(0.0947704416 -0.00108729218 0)
(0.0949632975 -0.00115026676 0)
(0.0951653472 -0.00120697227 0)
(0.0953753748 -0.00125669056 0)
(0.0955920341 -0.00129880434 0)
(0.0958138713 -0.00133281913 0)
(0.0960393524 -0.00135838093 0)
(0.0962668951 -0.00137528843 0)
(0.0964949031 -0.00138349912 0)
(0.0967218015 -0.0013831288 0)
(0.0969460714 -0.00137444492 0)
(0.0971662812 -0.00135785412 0)
(0.0973811141 -0.00133388503 0)
(0.0975893899 -0.00130316757 0)
(0.0977900812 -0.00126640999 0)
(0.0979823232 -0.00122437509 0)
(0.0981654176 -0.0011778566 0)
(0.0983388313 -0.00112765711 0)
(0.0985021904 -0.00107456796 0)
(0.0986552707 -0.00101935199 0)
(0.0987979851 -0.000962729244 0)
(0.0989303691 -0.00090536596 0)
(0.0990525659 -0.000847866585 0)
(0.0991648096 -0.000790768762 0)
(0.0992674102 -0.000734540924 0)
(0.0993607383 -0.000679582128 0)
(0.0994452116 -0.000626223677 0)
(0.0995212821 -0.000574732219 0)
(0.0995894255 -0.000525313866 0)
(0.099650131 -0.000478119187 0)
(0.0997038931 -0.000433248882 0)
(0.0997512046 -0.000390759779 0)
(0.0997925517 -0.000350670954 0)
(0.0998284101 -0.0003129698 0)
(0.0998592405 -0.000277617809 0)
(0.0998854853 -0.000244556169 0)
(0.0999075666 -0.000213711998 0)
(0.0999258858 -0.000185005036 0)
(0.0999408212 -0.000158352978 0)
(0.0999527242 -0.000133674916 0)
(0.0999619161 -0.000110894045 0)
(0.0999686833 -8.99377374e-05 0)
(0.0999732766 -7.07326554e-05 0)
(0.0999759184 -5.31996268e-05 0)
(0.0999768173 -3.7253174e-05 0)
(0.099976174 -2.27982512e-05 0)
(0.0999741999 -9.72274909e-06 0)
(0.0999711245 2.11299802e-06 0)
(0.0999669987 1.29665244e-05 0)
(0.0999619168 2.27353801e-05 0)
(0.0999560941 3.13908627e-05 0)
(0.0999496183 3.90312871e-05 0)
(0.0999425623 4.57509587e-05 0)
(0.0999349997 5.16328342e-05 0)
(0.0999269968 5.67592641e-05 0)
(0.0999186177 6.12057064e-05 0)
(0.0999099244 6.50385814e-05 0)
(0.0999009749 6.83172486e-05 0)
(0.0998918224 7.10951061e-05 0)
(0.0998825152 7.34200307e-05 0)
(0.0998730965 7.53349411e-05 0)
(0.0998636047 7.68783982e-05 0)
(0.0998540736 7.80851666e-05 0)
(0.0998445327 7.89867303e-05 0)
(0.0998350076 7.96117375e-05 0)
(0.0998255206 7.99863599e-05 0)
(0.099816091 8.01345765e-05 0)
(0.0998067355 8.00783914e-05 0)
(0.0997974687 7.98380046e-05 0)
(0.099788303 7.9431942e-05 0)
(0.0997792493 7.88771554e-05 0)
(0.0997703169 7.81891025e-05 0)
(0.0997615139 7.73818136e-05 0)
(0.0997528472 7.64679566e-05 0)
(0.0997443227 7.54589078e-05 0)
(0.0997359453 7.43648358e-05 0)
(0.0997277193 7.3194798e-05 0)
(0.099719648 7.19568521e-05 0)
(0.0997117341 7.06581645e-05 0)
(0.0997039799 6.93050952e-05 0)
(0.0996963873 6.79031167e-05 0)
(0.0996889579 6.64566971e-05 0)
(0.0996816941 6.49694318e-05 0)
(0.0996745937 6.34435446e-05 0)
(0.0996676704 6.18816366e-05 0)
(0.0996608833 6.02776309e-05 0)
(0.0996543815 5.86534792e-05 0)
(0.0996476613 5.68991111e-05 0)
(0.0996425225 5.54409713e-05 0)
(0.0996331765 5.24503037e-05 0)
(0.100000741 -1.84022875e-05 0)
(0.100009037 -6.69365951e-05 0)
(0.100028703 -0.000125078377 0)
(0.100062188 -0.000187303802 0)
(0.100109435 -0.00024370155 0)
(0.10016801 -0.000282246335 0)
(0.100233506 -0.00029346326 0)
(0.100300217 -0.000273642986 0)
(0.10036204 -0.000225030493 0)
(0.100413472 -0.000154277293 0)
(0.10045039 -7.06118763e-05 0)
(0.100471435 1.54203159e-05 0)
(0.100477664 9.50549236e-05 0)
(0.100470482 0.000161808117 0)
(0.100452009 0.000210898803 0)
(0.100425548 0.000240096992 0)
(0.10039465 0.00024946028 0)
(0.100362658 0.000240660395 0)
(0.100332574 0.000216417819 0)
(0.100306953 0.000180310596 0)
(0.100287748 0.000137062009 0)
(0.100276073 9.29792408e-05 0)
(0.10027187 5.59301839e-05 0)
(0.100273574 3.43233083e-05 0)
(0.100277882 3.54708056e-05 0)
(0.100280016 6.38647565e-05 0)
(0.100274592 0.000119815619 0)
(0.100256623 0.000199118325 0)
(0.10022225 0.000294007724 0)
(0.10016921 0.000394882593 0)
(0.100097033 0.000492156045 0)
(0.10000693 0.000577745531 0)
(0.099901425 0.000645940078 0)
(0.0997838807 0.000693638583 0)
(0.0996580268 0.00072013696 0)
(0.0995275761 0.000726715375 0)
(0.0993959414 0.000716251045 0)
(0.0992660214 0.000692978688 0)
(0.0991400022 0.00066237531 0)
(0.0990191332 0.000631014717 0)
(0.0989034857 0.000606183582 0)
(0.0987917728 0.000595109827 0)
(0.0986813508 0.000603814232 0)
(0.0985685032 0.000635806029 0)
(0.0984490147 0.000691012989 0)
(0.0983189333 0.00076537138 0)
(0.0981753448 0.000851357287 0)
(0.0980169612 0.000939450856 0)
(0.0978443663 0.00102018878 0)
(0.0976598449 0.00108621408 0)
(0.0974668408 0.00113369372 0)
(0.097269199 0.00116268112 0)
(0.0970704171 0.00117637869 0)
(0.096873116 0.00117964677 0)
(0.0966788481 0.00117734155 0)
(0.0964882339 0.00117305028 0)
(0.096301307 0.0011685543 0)
(0.0961179016 0.00116401726 0)
(0.0959379455 0.00115862794 0)
(0.0957615915 0.001151328 0)
(0.0955892016 0.00114133301 0)
(0.0954212485 0.00112833056 0)
(0.0952582051 0.00111240869 0)
(0.0951004704 0.0010938562 0)
(0.0949483444 0.00107297207 0)
(0.0948020407 0.00104995843 0)
(0.0946617138 0.00102490193 0)
(0.0945274844 0.000997807443 0)
(0.0943994549 0.00096864159 0)
(0.0942777167 0.000937361146 0)
(0.0941623534 0.000903921388 0)
(0.094053444 0.000868272181 0)
(0.0939510691 0.000830351456 0)
(0.0938553175 0.000790081825 0)
(0.0937662938 0.000747371109 0)
(0.0936841257 0.000702114575 0)
(0.0936089684 0.000654196182 0)
(0.093541006 0.000603487392 0)
(0.0934804474 0.000549844338 0)
(0.0934275143 0.00049311771 0)
(0.093382439 0.000433179798 0)
(0.0933454803 0.000369963924 0)
(0.0933169861 0.000303485033 0)
(0.0932973902 0.000233851096 0)
(0.0932871166 0.000161251744 0)
(0.0932864662 8.58096644e-05 0)
(0.0932944909 7.63603318e-06 0)
(0.0933116784 -7.32809869e-05 0)
(0.0933402979 -0.000156931597 0)
(0.0933812312 -0.00024263048 0)
(0.093434808 -0.000330206004 0)
(0.0935013427 -0.000419515077 0)
(0.0935811856 -0.000510179114 0)
(0.0936746706 -0.000601705947 0)
(0.0937820121 -0.000693506984 0)
(0.0939032886 -0.000784873953 0)
(0.0940384557 -0.000874996599 0)
(0.0941873241 -0.000962984866 0)
(0.0943495329 -0.00104788466 0)
(0.094524537 -0.00112869887 0)
(0.0947115993 -0.0012044151 0)
(0.0949097873 -0.00127403724 0)
(0.0951179764 -0.00133661976 0)
(0.0953348626 -0.00139130294 0)
(0.0955589823 -0.00143734642 0)
(0.0957887396 -0.00147415845 0)
(0.0960224407 -0.00150131896 0)
(0.0962583331 -0.00151859499 0)
(0.0964946479 -0.00152594763 0)
(0.0967296426 -0.00152353053 0)
(0.0969616423 -0.00151168037 0)
(0.0971890776 -0.00149090017 0)
(0.0974105155 -0.00146183691 0)
(0.0976246851 -0.00142525486 0)
(0.0978304951 -0.00138200647 0)
(0.0980270429 -0.00133300243 0)
(0.0982136184 -0.00127918257 0)
(0.0983896995 -0.00122148876 0)
(0.0985549432 -0.00116084105 0)
(0.0987091728 -0.00109811748 0)
(0.0988523608 -0.00103413799 0)
(0.0989846114 -0.000969652541 0)
(0.099106141 -0.000905333039 0)
(0.0992172595 -0.000841768939 0)
(0.0993183521 -0.000779465923 0)
(0.0994098622 -0.000718847235 0)
(0.0994922755 -0.000660257065 0)
(0.0995661063 -0.000603965602 0)
(0.0996318852 -0.000550175179 0)
(0.099690149 -0.00049902704 0)
(0.0997414336 -0.000450608454 0)
(0.0997862669 -0.000404959954 0)
(0.0998251632 -0.000362082637 0)
(0.0998586179 -0.000321945266 0)
(0.099887106 -0.000284490567 0)
(0.0999110812 -0.000249641 0)
(0.0999309729 -0.000217303641 0)
(0.0999471846 -0.000187373835 0)
(0.0999600942 -0.000159738504 0)
(0.0999700579 -0.000134278206 0)
(0.0999774127 -0.000110868729 0)
(0.0999824799 -8.93876422e-05 0)
(0.0999855615 -6.9723226e-05 0)
(0.0999869234 -5.1774374e-05 0)
(0.0999867761 -3.54449782e-05 0)
(0.0999852716 -2.06424554e-05 0)
(0.0999825108 -7.28545372e-06 0)
(0.0999786005 4.70307006e-06 0)
(0.0999736899 1.54140689e-05 0)
(0.0999679429 2.50178147e-05 0)
(0.099961484 3.35837108e-05 0)
(0.0999543914 4.11806368e-05 0)
(0.0999467459 4.78843693e-05 0)
(0.0999386288 5.37672376e-05 0)
(0.0999301121 5.89004699e-05 0)
(0.0999212619 6.33526073e-05 0)
(0.0999121402 6.71874027e-05 0)
(0.0999028035 7.04633161e-05 0)
(0.0998933028 7.32334777e-05 0)
(0.0998836839 7.55458804e-05 0)
(0.0998739872 7.74437992e-05 0)
(0.0998642483 7.89663132e-05 0)
(0.0998544979 8.01488294e-05 0)
(0.0998447627 8.10235654e-05 0)
(0.0998350655 8.16199629e-05 0)
(0.0998254261 8.19650161e-05 0)
(0.0998158613 8.20835174e-05 0)
(0.0998063859 8.19982361e-05 0)
(0.0997970125 8.17300487e-05 0)
(0.0997877522 8.12980398e-05 0)
(0.0997786144 8.07195845e-05 0)
(0.0997696076 8.00104247e-05 0)
(0.0997607389 7.91847432e-05 0)
(0.0997520144 7.8255243e-05 0)
(0.0997434394 7.72332366e-05 0)
(0.0997350181 7.61287466e-05 0)
(0.0997267539 7.49506153e-05 0)
(0.0997186497 7.37066202e-05 0)
(0.0997107075 7.24035803e-05 0)
(0.0997029287 7.10474364e-05 0)
(0.0996953145 6.96432825e-05 0)
(0.0996878654 6.81953385e-05 0)
(0.0996805828 6.67070519e-05 0)
(0.0996734635 6.5180543e-05 0)
(0.0996665196 6.36186249e-05 0)
(0.0996597099 6.20153627e-05 0)
(0.09965318 6.03949507e-05 0)
(0.0996464451 5.86482891e-05 0)
(0.0996412808 5.72087101e-05 0)
(0.0996321365 5.42736381e-05 0)
(0.100000602 -2.33241753e-05 0)
(0.100008178 -8.54758533e-05 0)
(0.100027223 -0.000160612365 0)
(0.100060875 -0.000241575894 0)
(0.100109566 -0.000315494242 0)
(0.100171027 -0.000366752616 0)
(0.100240649 -0.000382943816 0)
(0.100312212 -0.00035906125 0)
(0.100378947 -0.000297840835 0)
(0.10043475 -0.000207798556 0)
(0.100475258 -0.000100730609 0)
(0.100498313 1.08524229e-05 0)
(0.100504243 0.000115120817 0)
(0.10049505 0.000202061095 0)
(0.100473646 0.000265786663 0)
(0.100443764 0.000303815032 0)
(0.100409337 0.00031632081 0)
(0.100374153 0.000305438709 0)
(0.10034166 0.000274577807 0)
(0.100314809 0.000228206311 0)
(0.100295845 0.000172267045 0)
(0.100285994 0.000114773573 0)
(0.10028501 6.583187e-05 0)
(0.100290911 3.65245315e-05 0)
(0.100300167 3.65903001e-05 0)
(0.100307993 7.1820802e-05 0)
(0.100308664 0.000142432862 0)
(0.100296401 0.000242943071 0)
(0.100266553 0.000363394724 0)
(0.100216349 0.000491522589 0)
(0.100145146 0.000615121916 0)
(0.100054263 0.000723959558 0)
(0.0999465442 0.000810867324 0)
(0.0998257978 0.000872004481 0)
(0.0996962562 0.000906532684 0)
(0.0995621382 0.000916048388 0)
(0.099427323 0.000904076712 0)
(0.0992950936 0.000875786723 0)
(0.0991678926 0.000837894526 0)
(0.0990470635 0.000798543402 0)
(0.0989326105 0.000766867843 0)
(0.0988230459 0.000752025138 0)
(0.0987154189 0.000761708955 0)
(0.0986056075 0.000800450074 0)
(0.0984889063 0.000868227344 0)
(0.098360841 0.000959943877 0)
(0.0982180403 0.00106612052 0)
(0.0980589329 0.00117477246 0)
(0.0978840589 0.00127400932 0)
(0.0976958929 0.00135460758 0)
(0.097498232 0.00141177569 0)
(0.0972953391 0.0014455975 0)
(0.0970911008 0.00146010656 0)
(0.0968884338 0.00146142305 0)
(0.0966890678 0.00145567542 0)
(0.09649369 0.00144741305 0)
(0.0963023208 0.00143892432 0)
(0.0961147418 0.00143046203 0)
(0.0959308207 0.00142104268 0)
(0.0957506632 0.00140935913 0)
(0.0955746026 0.00139443968 0)
(0.0954030965 0.00137590424 0)
(0.0952366078 0.00135388024 0)
(0.0950755233 0.00132875402 0)
(0.094920125 0.00130092991 0)
(0.0947706022 0.00127069219 0)
(0.0946270809 0.0012381781 0)
(0.0944896508 0.0012034174 0)
(0.0943583829 0.00116638595 0)
(0.0942333382 0.00112704128 0)
(0.0941145717 0.00108533345 0)
(0.0940021374 0.00104120051 0)
(0.0938960934 0.000994560581 0)
(0.0937965104 0.000945308002 0)
(0.0937034785 0.000893314491 0)
(0.0936171144 0.00083843322 0)
(0.0935375655 0.000780503187 0)
(0.0934650123 0.000719352922 0)
(0.0933996672 0.000654804346 0)
(0.0933417713 0.000586680394 0)
(0.0932915931 0.000514818471 0)
(0.0932494301 0.000439081216 0)
(0.0932156076 0.000359358135 0)
(0.0931904666 0.00027552642 0)
(0.0931742873 0.000187458126 0)
(0.0931673772 9.50727625e-05 0)
(0.093170987 -1.5263235e-06 0)
(0.0931857774 -0.000101142085 0)
(0.0932118166 -0.000203615837 0)
(0.0932499955 -0.000308997817 0)
(0.0933010684 -0.000417090859 0)
(0.0933656526 -0.00052750671 0)
(0.0934442689 -0.000639712628 0)
(0.0935373619 -0.000753068728 0)
(0.0936452788 -0.00086681563 0)
(0.093768239 -0.000980055938 0)
(0.093906315 -0.00109176499 0)
(0.0940594078 -0.00120081199 0)
(0.09422722 -0.00130598236 0)
(0.0944092345 -0.00140600696 0)
(0.094604701 -0.00149959853 0)
(0.0948126293 -0.00158549245 0)
(0.0950317919 -0.00166248994 0)
(0.0952607377 -0.00172950225 0)
(0.0954978161 -0.00178559304 0)
(0.0957412104 -0.00183001627 0)
(0.0959889807 -0.00186224688 0)
(0.0962391132 -0.00188200198 0)
(0.0964895737 -0.00188925096 0)
(0.0967383611 -0.00188421398 0)
(0.0969835598 -0.00186734902 0)
(0.0972233859 -0.00183932889 0)
(0.0974562259 -0.00180101027 0)
(0.0976806664 -0.00175339705 0)
(0.0978955142 -0.00169760079 0)
(0.0980998056 -0.00163480059 0)
(0.0982928073 -0.00156620461 0)
(0.098474009 -0.00149301507 0)
(0.0986431097 -0.0014163978 0)
(0.0987999991 -0.00133745713 0)
(0.0989447357 -0.00125721647 0)
(0.0990775233 -0.00117660446 0)
(0.0991986871 -0.00109644619 0)
(0.0993086501 -0.00101745908 0)
(0.0994079111 -0.000940252714 0)
(0.0994970238 -0.000865331765 0)
(0.0995765798 -0.000793101392 0)
(0.0996471923 -0.000723874343 0)
(0.0997094833 -0.000657879138 0)
(0.0997640731 -0.000595268845 0)
(0.0998115707 -0.000536130416 0)
(0.0998525674 -0.000480494216 0)
(0.0998876312 -0.000428342928 0)
(0.0999173046 -0.000379619538 0)
(0.0999421013 -0.000334234862 0)
(0.0999625046 -0.0002920752 0)
(0.0999789679 -0.000253009551 0)
(0.0999919158 -0.0002168955 0)
(0.100001744 -0.000183584842 0)
(0.100008816 -0.000152931408 0)
(0.100013458 -0.000124797974 0)
(0.100015942 -9.90561778e-05 0)
(0.100016493 -7.55807979e-05 0)
(0.100015316 -5.42483332e-05 0)
(0.100012608 -3.49364242e-05 0)
(0.100008552 -1.75160279e-05 0)
(0.100003341 -1.8266089e-06 0)
(0.0999972204 1.22630499e-05 0)
(0.0999903507 2.48654754e-05 0)
(0.0999828018 3.61013157e-05 0)
(0.0999746715 4.60677106e-05 0)
(0.0999660548 5.48637105e-05 0)
(0.0999570282 6.25902382e-05 0)
(0.0999476602 6.93409359e-05 0)
(0.0999380127 7.52035203e-05 0)
(0.0999281412 8.02603099e-05 0)
(0.099918096 8.45872562e-05 0)
(0.0999079231 8.82539555e-05 0)
(0.0998976634 9.1324003e-05 0)
(0.0998873538 9.38552627e-05 0)
(0.0998770274 9.59002094e-05 0)
(0.0998667135 9.75063594e-05 0)
(0.099856438 9.8716724e-05 0)
(0.0998462236 9.95702583e-05 0)
(0.0998360899 0.000100102285 0)
(0.0998260539 0.000100344877 0)
(0.09981613 0.000100327202 0)
(0.0998063304 0.000100075804 0)
(0.0997966653 9.96148589e-05 0)
(0.0997871433 9.89663719e-05 0)
(0.0997777712 9.81503564e-05 0)
(0.0997685547 9.71849786e-05 0)
(0.0997594985 9.60866859e-05 0)
(0.0997506062 9.48703216e-05 0)
(0.0997418806 9.35492308e-05 0)
(0.0997333238 9.21353607e-05 0)
(0.0997249374 9.06393555e-05 0)
(0.0997167225 8.90706428e-05 0)
(0.0997086796 8.7437509e-05 0)
(0.0997008091 8.57471527e-05 0)
(0.099693111 8.40057191e-05 0)
(0.0996855846 8.22182825e-05 0)
(0.0996782305 8.03889866e-05 0)
(0.0996710442 7.85204204e-05 0)
(0.099664037 7.66162051e-05 0)
(0.0996571639 7.46696016e-05 0)
(0.0996505734 7.27109578e-05 0)
(0.0996437484 7.0609601e-05 0)
(0.0996385214 6.88885675e-05 0)
(0.0996289884 6.5386654e-05 0)
(0.100000654 -2.76622365e-05 0)
(0.100008581 -0.000101419409 0)
(0.100028232 -0.000190644635 0)
(0.100062665 -0.000287167027 0)
(0.100112171 -0.000376153746 0)
(0.10017438 -0.000439433719 0)
(0.100244706 -0.000462336984 0)
(0.100317086 -0.000438588304 0)
(0.10038494 -0.000370869857 0)
(0.100442272 -0.000268784623 0)
(0.100484769 -0.000146124072 0)
(0.100510429 -1.8107786e-05 0)
(0.100518677 0.000101209983 0)
(0.100511017 0.000201304412 0)
(0.100490968 0.000275365415 0)
(0.100462272 0.000320260734 0)
(0.100428809 0.000336035826 0)
(0.100394395 0.000324982144 0)
(0.100362516 0.000290849379 0)
(0.100336175 0.000238638668 0)
(0.100317705 0.000175082848 0)
(0.100308492 0.000109355561 0)
(0.100308663 5.30486225e-05 0)
(0.100316574 1.87727413e-05 0)
(0.100328381 1.78309917e-05 0)
(0.100338548 5.73214568e-05 0)
(0.100341068 0.000137964834 0)
(0.100330449 0.000253843482 0)
(0.100302331 0.000393654518 0)
(0.100254016 0.00054320555 0)
(0.100184758 0.00068823382 0)
(0.100095696 0.000816673494 0)
(0.0999894988 0.000919974775 0)
(0.0998698399 0.000993460285 0)
(0.0997408769 0.00103597369 0)
(0.0996068054 0.00104921707 0)
(0.0994715191 0.00103714738 0)
(0.0993383468 0.00100563677 0)
(0.0992098154 0.000962364706 0)
(0.0990873928 0.000916696997 0)
(0.0989712168 0.000879211175 0)
(0.0988598947 0.000860608276 0)
(0.0987505062 0.000870006505 0)
(0.0986389088 0.000912949421 0)
(0.0985203537 0.000989727124 0)
(0.0983903171 0.00109466774 0)
(0.0982453678 0.00121684505 0)
(0.098083853 0.00134221057 0)
(0.0979062175 0.00145664693 0)
(0.097714858 0.00154906267 0)
(0.0975135467 0.00161357878 0)
(0.0973065915 0.00165015203 0)
(0.0970979844 0.001663537 0)
(0.0968907794 0.00166107955 0)
(0.0966868425 0.00165020621 0)
(0.0964869723 0.00163647586 0)
(0.0962912658 0.00162271717 0)
(0.0960995484 0.00160927466 0)
(0.0959117086 0.0015949689 0)
(0.0957278598 0.00157821108 0)
(0.0955483373 0.00155781741 0)
(0.0953735968 0.00153333244 0)
(0.0952040949 0.00150493193 0)
(0.0950402059 0.00147311862 0)
(0.0948821915 0.00143842345 0)
(0.0947302139 0.00140123174 0)
(0.0945843657 0.00136174671 0)
(0.0944446999 0.00132003647 0)
(0.0943112493 0.00127609978 0)
(0.0941840369 0.00122990991 0)
(0.0940630816 0.00118142812 0)
(0.0939484033 0.00113059788 0)
(0.0938400296 0.00107733473 0)
(0.0937380037 0.00102152133 0)
(0.0936423919 0.000963009075 0)
(0.0935532899 0.000901623964 0)
(0.0934708272 0.000837173651 0)
(0.09339517 0.000769454137 0)
(0.0933265222 0.000698256239 0)
(0.0932651258 0.000623373205 0)
(0.0932112619 0.000544610212 0)
(0.0931652528 0.000461794111 0)
(0.0931274666 0.000374782945 0)
(0.0930983215 0.000283479469 0)
(0.0930782957 0.000187854195 0)
(0.0930679613 8.8027832e-05 0)
(0.0930678191 -1.57745079e-05 0)
(0.0930783858 -0.000123918469 0)
(0.0931004525 -0.000236058404 0)
(0.0931349292 -0.000351920025 0)
(0.093182657 -0.000471218209 0)
(0.0932443586 -0.000593567029 0)
(0.0933206998 -0.000718429515 0)
(0.093412295 -0.000845102971 0)
(0.093519665 -0.000972719477 0)
(0.0936431966 -0.00110024434 0)
(0.0937831145 -0.00122648337 0)
(0.0939394493 -0.00135010029 0)
(0.0941120032 -0.00146964139 0)
(0.0943003196 -0.00158356949 0)
(0.0945036609 -0.00169030811 0)
(0.0947209957 -0.00178829377 0)
(0.0949509974 -0.00187603379 0)
(0.0951920577 -0.00195216607 0)
(0.0954423137 -0.00201551682 0)
(0.0956996908 -0.00206515188 0)
(0.0959619559 -0.00210041782 0)
(0.0962267818 -0.0021209698 0)
(0.0964918152 -0.00212678412 0)
(0.0967547468 -0.00211815482 0)
(0.0970133766 -0.00209567508 0)
(0.0972656723 -0.00206020542 0)
(0.097509817 -0.00201283139 0)
(0.0977442435 -0.00195481438 0)
(0.0979676566 -0.0018875392 0)
(0.0981790412 -0.00181246168 0)
(0.0983776595 -0.00173105938 0)
(0.098563038 -0.00164478753 0)
(0.0987349469 -0.00155504184 0)
(0.0988933741 -0.00146312874 0)
(0.0990384959 -0.0013702434 0)
(0.0991706463 -0.00127745513 0)
(0.0992902868 -0.00118569934 0)
(0.0993979774 -0.00109577525 0)
(0.0994943502 -0.00100834831 0)
(0.0995800858 -0.000923956261 0)
(0.0996558931 -0.000843017752 0)
(0.0997224914 -0.000765842952 0)
(0.0997805968 -0.000692645213 0)
(0.0998309104 -0.00062355317 0)
(0.0998741103 -0.000558622756 0)
(0.0999108456 -0.000497848637 0)
(0.0999417317 -0.00044117495 0)
(0.0999673472 -0.000388505549 0)
(0.0999882327 -0.000339713457 0)
(0.10000489 -0.000294648633 0)
(0.100017782 -0.000253144584 0)
(0.100027332 -0.000215024516 0)
(0.100033922 -0.000180105799 0)
(0.100037896 -0.000148202961 0)
(0.100039569 -0.000119130373 0)
(0.100039249 -9.27029264e-05 0)
(0.100037232 -6.87360085e-05 0)
(0.100033781 -4.70482665e-05 0)
(0.100029115 -2.74669611e-05 0)
(0.10002343 -9.8324217e-06 0)
(0.100016829 6.01274381e-06 0)
(0.100009362 2.02304666e-05 0)
(0.100001163 3.29186973e-05 0)
(0.0999923793 4.41931388e-05 0)
(0.0999831092 5.41711914e-05 0)
(0.0999734358 6.29581918e-05 0)
(0.0999634334 7.06543765e-05 0)
(0.0999531684 7.73548251e-05 0)
(0.0999426997 8.31487183e-05 0)
(0.0999320798 8.81194554e-05 0)
(0.0999213561 9.23443426e-05 0)