/*--------------------------------*- C++ -*----------------------------------*\
| =========                 |                                                 |
| \\      /  F ield         | OpenFOAM: The Open Source CFD Toolbox           |
|  \\    /   O peration     | Version:  v2012                                 |
|   \\  /    A nd           | Website:  www.openfoam.com                      |
|    \\/     M anipulation  |                                                 |
\*---------------------------------------------------------------------------*/
FoamFile
{
    version     2.0;
    format      ascii;
    class       volScalarField;
    location    "2.89";
    object      p;
}
// * * * * * * * * * * * * * * * * * * * * * * * * * * * * * * * * * * * * * //

dimensions      [0 2 -2 0 0 0 0];


internalField   nonuniform List<scalar> 
28416
(
-0.0143658542
-0.0143660556
-0.0143664797
-0.0143670376
-0.0143675825
-0.0143680281
-0.0143683508
-0.0143685368
-0.0143685528
-0.0143683539
-0.0143679901
-0.0143671324
-0.0143658464
-0.0143641207
-0.0143618131
-0.0143588759
-0.0143552418
-0.0143508103
-0.0143454703
-0.0143391007
-0.0143315689
-0.0143227283
-0.0143123969
-0.0143004349
-0.0142867674
-0.0142713063
-0.0142539067
-0.0142344066
-0.0142126598
-0.0141885315
-0.0141618904
-0.0141326101
-0.0141005688
-0.0140656494
-0.0140277384
-0.013986727
-0.0139425124
-0.0138949978
-0.0138440939
-0.0137897197
-0.0137318039
-0.0136702867
-0.0136051234
-0.0135362888
-0.0134637792
-0.0133876141
-0.0133078348
-0.0132245016
-0.0131376915
-0.0130474946
-0.012954012
-0.0128573541
-0.01275764
-0.0126549975
-0.0125495634
-0.0124414838
-0.0123309134
-0.0122180149
-0.0121029569
-0.0119859126
-0.0118670576
-0.0117465681
-0.0116246199
-0.0115013864
-0.011377038
-0.0112517408
-0.0111256557
-0.0109989373
-0.0108717335
-0.0107441845
-0.0106164226
-0.0104885715
-0.0103607469
-0.0102330557
-0.0101055974
-0.00997846437
-0.00985174407
-0.00972552297
-0.00959989435
-0.00947492574
-0.00935065585
-0.00922713068
-0.00910438901
-0.00898244845
-0.00886131709
-0.00874099254
-0.00862145132
-0.00850270782
-0.0083842161
-0.00826683872
-0.00815056043
-0.00803526795
-0.00792099856
-0.00780781641
-0.00769575571
-0.00758484696
-0.00747512864
-0.00736663999
-0.00725941777
-0.00715349681
-0.00704890937
-0.0069456837
-0.00684384289
-0.00674340377
-0.00664437596
-0.00654676101
-0.00645055181
-0.00635573223
-0.00626227708
-0.00617015238
-0.00607931581
-0.00598971759
-0.00590130147
-0.00581400584
-0.00572776504
-0.00564251069
-0.0055581729
-0.00547468158
-0.00539196749
-0.00530996324
-0.00522860415
-0.00514782889
-0.00506757998
-0.00498780418
-0.00490845264
-0.00482948109
-0.00475084968
-0.00467252295
-0.00459446963
-0.00451666247
-0.00443907797
-0.00436169599
-0.00428449935
-0.00420747345
-0.00413060603
-0.00405388685
-0.00397730734
-0.00390086011
-0.00382453862
-0.00374833703
-0.00367224999
-0.00359627239
-0.00352039907
-0.00344462486
-0.00336894421
-0.00329335105
-0.00321783854
-0.00314240329
-0.00306707538
-0.00299181636
-0.0029166451
-0.00284155288
-0.00276654434
-0.00269162249
-0.00261678596
-0.00254203322
-0.00246736299
-0.0023927739
-0.00231826445
-0.00224383308
-0.00216947812
-0.00209519776
-0.00202099008
-0.00194685307
-0.00187278463
-0.00179878262
-0.00172484481
-0.00165096896
-0.00157715274
-0.00150339384
-0.00142968988
-0.00135603845
-0.00128243714
-0.00120888348
-0.00113537499
-0.00106190918
-0.000988483522
-0.000915095474
-0.000841742489
-0.000768422003
-0.000695131439
-0.000621868293
-0.000548630098
-0.000475414512
-0.000402218981
-0.000329042144
-0.000255879375
-0.000182739162
-0.000109591988
-3.65720172e-05
-0.0143633641
-0.0143633092
-0.0143634309
-0.0143637781
-0.0143642191
-0.0143646409
-0.0143650085
-0.0143653095
-0.0143655077
-0.0143655557
-0.0143654009
-0.0143647305
-0.0143638464
-0.0143624873
-0.0143606138
-0.0143581244
-0.0143549201
-0.0143509073
-0.0143459813
-0.0143400266
-0.0143329186
-0.0143245241
-0.0143147065
-0.0143033514
-0.0142903294
-0.0142755005
-0.0142587301
-0.0142398797
-0.014218806
-0.0141953683
-0.0141694303
-0.0141408591
-0.0141095256
-0.0140753044
-0.0140380744
-0.0139977187
-0.0139541262
-0.0139071927
-0.0138568223
-0.0138029294
-0.0137454414
-0.0136843001
-0.0136194642
-0.0135509098
-0.0134786322
-0.0134026462
-0.0133229866
-0.0132397074
-0.0131528804
-0.0130625925
-0.0129689438
-0.0128720456
-0.0127720199
-0.0126689988
-0.0125631242
-0.0124545479
-0.0123434305
-0.0122299406
-0.0121142529
-0.0119965467
-0.0118770042
-0.0117558083
-0.0116331417
-0.0115091846
-0.0113841139
-0.0112581021
-0.0111313156
-0.0110039141
-0.0108760498
-0.0107478667
-0.0106195001
-0.010491076
-0.0103627117
-0.0102345154
-0.0101065865
-0.00997901706
-0.00985189174
-0.00972528924
-0.00959928087
-0.00947392294
-0.00934925511
-0.00922530027
-0.00910207991
-0.00897961263
-0.00885791423
-0.00873701567
-0.00861696326
-0.00849776352
-0.0083793894
-0.00826181449
-0.00814520319
-0.00802960016
-0.00791501707
-0.00780149602
-0.00768908204
-0.00757781477
-0.00746773627
-0.00735889084
-0.0072513222
-0.00714507255
-0.00704018164
-0.00693668532
-0.00683461398
-0.00673399118
-0.00663483231
-0.00653714352
-0.00644092085
-0.0063461497
-0.00625280476
-0.00616085023
-0.00607024046
-0.00598092089
-0.00589282939
-0.0058058976
-0.00572005259
-0.00563521843
-0.00555131774
-0.00546827321
-0.00538600891
-0.00530445141
-0.0052235307
-0.00514318099
-0.00506334116
-0.00498395509
-0.00490497186
-0.00482634577
-0.00474803616
-0.00467000729
-0.00459222807
-0.00451467163
-0.00443731498
-0.00436013867
-0.00428312637
-0.00420626443
-0.00412954151
-0.00405294818
-0.0039764766
-0.00390012036
-0.00382387408
-0.00374773314
-0.00367169348
-0.00359575141
-0.00351990363
-0.00344414752
-0.0033684817
-0.00329290596
-0.00321742091
-0.003142026
-0.0030667086
-0.00299147505
-0.00291632738
-0.00284126433
-0.00276628303
-0.00269138387
-0.00261656667
-0.00254183085
-0.00246717578
-0.00239260041
-0.00231810346
-0.00224368351
-0.00216933905
-0.00209506839
-0.00202086975
-0.00194674125
-0.00187268089
-0.00179868661
-0.00172475627
-0.00165088767
-0.00157707853
-0.00150332655
-0.00142962937
-0.00135598459
-0.00128238979
-0.00120884253
-0.0011353403
-0.00106188064
-0.000988461003
-0.000915078866
-0.000841731689
-0.00076841693
-0.000695132041
-0.000621874498
-0.000548641797
-0.000475431533
-0.000402241019
-0.00032906871
-0.000255909354
-0.000182770871
-0.00010961929
-3.65902943e-05
-0.0143616478
-0.0143617158
-0.0143619861
-0.0143624596
-0.0143630188
-0.0143635661
-0.0143640685
-0.0143645132
-0.014364865
-0.0143650651
-0.0143650462
-0.0143647498
-0.0143639939
-0.0143628675
-0.0143612598
-0.0143590831
-0.0143562502
-0.0143526558
-0.0143481852
-0.0143427178
-0.0143361263
-0.014328278
-0.0143190364
-0.0143082621
-0.0142958117
-0.014281553
-0.0142653515
-0.0142470698
-0.0142265682
-0.0142037046
-0.0141783382
-0.0141503309
-0.0141195479
-0.0140858579
-0.0140491333
-0.0140092519
-0.0139660975
-0.0139195623
-0.0138695479
-0.013815967
-0.0137587449
-0.0136978204
-0.0136331486
-0.013564703
-0.013492477
-0.0134164845
-0.0133367595
-0.0132533548
-0.0131663406
-0.0130758033
-0.0129818438
-0.0128845755
-0.0127841242
-0.0126806262
-0.0125742288
-0.0124650891
-0.0123533735
-0.0122392562
-0.0121229177
-0.0120045433
-0.011884321
-0.0117624397
-0.0116390875
-0.0115144504
-0.0113887104
-0.0112620446
-0.0111346239
-0.0110066117
-0.0108781636
-0.0107494262
-0.0106205368
-0.0104916229
-0.0103628023
-0.0102341831
-0.0101058639
-0.00997793416
-0.00985047467
-0.0097235577
-0.00959724642
-0.00947159353
-0.00934664077
-0.00922242149
-0.00909896771
-0.00897631608
-0.00885449552
-0.00873350587
-0.00861328638
-0.00849386489
-0.00837526558
-0.00825758031
-0.00814083323
-0.00802506168
-0.00791030316
-0.00779660059
-0.00768399823
-0.00757253928
-0.0074622692
-0.00735323575
-0.007245487
-0.00713907004
-0.00703402978
-0.0069304073
-0.00682823814
-0.00672755051
-0.00662836376
-0.00653068698
-0.00643451799
-0.00633984269
-0.00624663487
-0.00615485657
-0.00606445873
-0.00597538244
-0.00588756041
-0.00580091865
-0.00571537835
-0.00563085772
-0.00554727381
-0.00546454414
-0.0053825882
-0.00530132864
-0.00522069228
-0.0051406108
-0.00506102131
-0.00498186654
-0.00490309502
-0.00482466095
-0.00474652404
-0.00466864919
-0.00459100616
-0.00451356919
-0.00443631654
-0.00435923012
-0.00428229492
-0.00420549859
-0.0041288312
-0.00405228475
-0.00397585283
-0.00389953026
-0.00382331292
-0.00374719754
-0.00367118139
-0.00359526206
-0.00351943755
-0.00344370562
-0.00336806322
-0.00329250688
-0.00321703412
-0.00314164327
-0.0030663246
-0.00299109099
-0.00291594329
-0.00284088108
-0.00276590285
-0.00269100837
-0.00261619706
-0.002541468
-0.00246682025
-0.00239225271
-0.00231776407
-0.00224335288
-0.00216901754
-0.00209475632
-0.00202056738
-0.00194644876
-0.00187239845
-0.00179841434
-0.00172449428
-0.00165063602
-0.0015768373
-0.00150309581
-0.00142940918
-0.00135577501
-0.00128219087
-0.0012086543
-0.0011351628
-0.00106171386
-0.000988304954
-0.000914933521
-0.000841597007
-0.000768292852
-0.000695018481
-0.000621771336
-0.000548548866
-0.000475348602
-0.000402167778
-0.000329004743
-0.00025585427
-0.000182724524
-0.000109584047
-3.65717766e-05
-0.0143594174
-0.0143594191
-0.0143596188
-0.0143600647
-0.0143606583
-0.0143613064
-0.0143619733
-0.0143626415
-0.0143632722
-0.0143638049
-0.0143641751
-0.0143643304
-0.0143641549
-0.0143636005
-0.0143625768
-0.0143609971
-0.0143587711
-0.0143557967
-0.0143519642
-0.0143471564
-0.0143412491
-0.0143341121
-0.0143256105
-0.0143156084
-0.0143039679
-0.0142905635
-0.0142752553
-0.0142578861
-0.0142383023
-0.0142163563
-0.0141919021
-0.0141647961
-0.0141348969
-0.0141020666
-0.0140661707
-0.0140270798
-0.0139846701
-0.0139388253
-0.0138894379
-0.0138364114
-0.013779663
-0.0137191264
-0.0136547532
-0.0135865143
-0.0135144007
-0.013438424
-0.0133586165
-0.013275031
-0.0131877393
-0.0130968301
-0.0130024071
-0.0129045875
-0.012803501
-0.0126992892
-0.0125921054
-0.0124821138
-0.0123694887
-0.0122544132
-0.0121370773
-0.0120176757
-0.0118964063
-0.0117734675
-0.011649057
-0.0115233695
-0.0113965955
-0.0112689199
-0.0111405201
-0.0110115658
-0.0108822172
-0.0107526249
-0.0106229289
-0.0104932584
-0.0103637319
-0.010234457
-0.0101055304
-0.00997703896
-0.0098490592
-0.00972165818
-0.00959489336
-0.00946881266
-0.00934345477
-0.00921885022
-0.00909502313
-0.00897199095
-0.00884975971
-0.00872832678
-0.00860771594
-0.00848798667
-0.00836910951
-0.00825111452
-0.00813404733
-0.00801794282
-0.00790283776
-0.00778877316
-0.0076757946
-0.00756395058
-0.00745329264
-0.00734387519
-0.00723575421
-0.0071289857
-0.00702362394
-0.00691971956
-0.00681731732
-0.00671645393
-0.00661715598
-0.00651943818
-0.00642330196
-0.00632873462
-0.00623570908
-0.0061441842
-0.00605410575
-0.00596540784
-0.00587801486
-0.00579184354
-0.00570680532
-0.00562280862
-0.00553976097
-0.00545757103
-0.0053761503
-0.00529541447
-0.00521528449
-0.00513568738
-0.00505655664
-0.00497783247
-0.00489946176
-0.00482139793
-0.00474360059
-0.00466603514
-0.00458867231
-0.00451148763
-0.00443446087
-0.00435757555
-0.00428081841
-0.00420417895
-0.00412764899
-0.00405122223
-0.00397489388
-0.00389866039
-0.003822519
-0.00374646751
-0.00367050392
-0.00359462639
-0.00351883337
-0.00344312395
-0.0033674981
-0.00329195648
-0.00321650337
-0.00314113046
-0.00306584207
-0.00299063643
-0.00291551238
-0.00284047115
-0.00276551249
-0.00269063601
-0.00261584133
-0.00254112778
-0.00246649457
-0.00239194069
-0.00231746497
-0.0022430661
-0.0021687426
-0.00209449288
-0.00202031519
-0.0019462077
-0.00187216844
-0.00179819537
-0.00172428635
-0.00165043916
-0.00157665154
-0.00150292115
-0.00142924563
-0.00135562255
-0.00128204948
-0.00120852395
-0.00113504344
-0.00106160544
-0.000988207426
-0.000914846826
-0.000841521084
-0.000768227636
-0.000694963892
-0.000621727272
-0.000548515182
-0.000475325099
-0.000402154165
-0.000329000635
-0.000255858914
-0.00018273685
-0.000109599498
-3.65854753e-05
-0.0143570043
-0.0143570503
-0.0143573365
-0.0143579086
-0.0143586637
-0.0143595053
-0.0143603992
-0.0143613317
-0.0143622675
-0.0143631475
-0.0143639051
-0.0143644534
-0.014364747
-0.0143647005
-0.0143642524
-0.014363316
-0.0143617856
-0.0143595568
-0.0143565181
-0.0143525505
-0.0143475301
-0.0143413304
-0.0143338223
-0.0143248613
-0.0143142386
-0.0143018451
-0.0142875446
-0.014271198
-0.0142526559
-0.0142317617
-0.0142083596
-0.0141822958
-0.0141534192
-0.0141215819
-0.0140866391
-0.0140484504
-0.0140068818
-0.013961807
-0.0139131104
-0.0138606886
-0.0138044527
-0.0137443294
-0.013680264
-0.013612222
-0.0135401911
-0.0134641814
-0.0133842245
-0.0133003731
-0.0132126991
-0.0131212927
-0.0130262606
-0.0129277247
-0.012825821
-0.0127206988
-0.0126125201
-0.0125014588
-0.0123876996
-0.0122714363
-0.0121528701
-0.0120322074
-0.0119096575
-0.0117854305
-0.0116597353
-0.0115327773
-0.011404757
-0.0112758684
-0.0111462973
-0.0110162203
-0.0108858038
-0.0107552029
-0.0106245611
-0.0104940098
-0.0103636681
-0.0102336431
-0.0101040297
-0.00997491154
-0.00984636101
-0.00971843994
-0.00959120007
-0.00946468355
-0.00933892373
-0.00921394612
-0.00908976986
-0.00896640946
-0.00884387705
-0.00872218553
-0.00860136012
-0.00848132959
-0.00836216666
-0.00824389478
-0.00812654522
-0.0080101468
-0.00789473286
-0.00778034415
-0.00766702767
-0.00755483537
-0.00744382406
-0.00733405496
-0.0072255924
-0.00711850198
-0.00701284844
-0.0069086932
-0.00680609159
-0.00670509011
-0.00660572368
-0.00650801335
-0.00641196448
-0.00631756554
-0.00622478783
-0.00613358586
-0.00604389856
-0.00595565121
-0.00586875782
-0.00578312387
-0.00569864916
-0.00561523066
-0.00553276512
-0.00545115141
-0.00537029247
-0.00529009687
-0.00521047987
-0.00513136426
-0.00505268063
-0.0049743675
-0.00489637116
-0.00481864533
-0.00474115062
-0.00466385399
-0.00458672812
-0.00450975073
-0.00443290395
-0.00435617374
-0.00427954926
-0.00420302232
-0.00412658695
-0.00405023888
-0.00397397521
-0.00389779402
-0.00382169405
-0.00374567464
-0.00366973595
-0.00359387895
-0.00351810471
-0.0034424137
-0.0033668057
-0.00329127941
-0.00321582842
-0.00314046652
-0.00306518396
-0.00298998464
-0.00291486878
-0.00283983624
-0.00276488701
-0.00269002081
-0.00261523722
-0.00254053555
-0.00246591498
-0.00239137446
-0.00231691276
-0.00224252849
-0.00216822009
-0.00209398587
-0.00201982402
-0.00194573263
-0.00187170968
-0.00179775309
-0.00172386073
-0.00165003035
-0.00157625968
-0.00150254639
-0.00142888811
-0.0013552824
-0.00128172683
-0.00120821888
-0.00113475605
-0.00106133579
-0.000987955532
-0.00091461269
-0.000841304674
-0.000768028882
-0.000694782694
-0.000621563487
-0.000548368626
-0.000475195536
-0.000402041309
-0.00032890414
-0.000255778516
-0.000182672551
-0.000109553692
-3.65636024e-05
-0.0143543375
-0.0143544206
-0.0143547844
-0.0143554786
-0.0143564065
-0.014357478
-0.0143586626
-0.0143599473
-0.0143612959
-0.0143626476
-0.0143639321
-0.0143650869
-0.014366064
-0.0143667605
-0.0143670898
-0.0143669585
-0.0143662806
-0.0143649527
-0.0143628611
-0.0143598851
-0.0143558973
-0.0143507635
-0.0143443524
-0.0143365858
-0.0143270645
-0.0143158687
-0.0143028402
-0.0142877895
-0.0142705414
-0.0142509339
-0.0142288088
-0.0142040053
-0.0141763623
-0.0141457203
-0.014111923
-0.0140748181
-0.0140342597
-0.0139901097
-0.0139422403
-0.0138905373
-0.0138349025
-0.0137752574
-0.013711544
-0.0136437252
-0.0135717848
-0.0134957282
-0.0134155828
-0.0133313987
-0.0132432482
-0.0131512237
-0.0130554365
-0.012956015
-0.0128531031
-0.0127468597
-0.0126374577
-0.0125250829
-0.0124099328
-0.0122922149
-0.0121721442
-0.0120499415
-0.0119258305
-0.0118000355
-0.011672779
-0.0115442798
-0.0114147505
-0.0112843961
-0.0111534121
-0.0110219837
-0.0108902839
-0.0107584733
-0.0106266988
-0.0104950942
-0.0103637788
-0.0102328588
-0.0101024267
-0.0099725624
-0.0098433334
-0.00971479574
-0.00958699471
-0.0094599657
-0.00933373527
-0.0092083223
-0.00908373944
-0.00895999468
-0.00883709279
-0.00871503647
-0.00859382741
-0.00847345477
-0.00835395014
-0.00823532501
-0.00811760014
-0.00800080328
-0.00788496826
-0.00777013608
-0.00765635548
-0.00754368288
-0.00743218199
-0.00732192306
-0.00721298142
-0.00710543547
-0.00699936394
-0.00689484285
-0.00679194196
-0.00669072114
-0.00659122685
-0.00649348898
-0.00639751841
-0.00630330547
-0.0062108194
-0.00612000893
-0.0060308039
-0.00594311775
-0.0058568507
-0.00577189323
-0.00568812981
-0.00560544239
-0.00552371367
-0.00544282987
-0.00536268302
-0.00528317262
-0.00520420683
-0.00512570314
-0.00504758865
-0.00496979987
-0.00489228242
-0.00481499046
-0.00473788588
-0.00466093762
-0.00458412081
-0.00450741594
-0.00443080811
-0.00435428631
-0.00427784267
-0.00420147193
-0.00412517092
-0.00404893806
-0.003972773
-0.00389667635
-0.00382064929
-0.00374469332
-0.00366880984
-0.00359299979
-0.00351726383
-0.00344160269
-0.00336601777
-0.00329051239
-0.00321508904
-0.00313974694
-0.00306448543
-0.00298930523
-0.00291420725
-0.00283919195
-0.00276425949
-0.00268940976
-0.0026146424
-0.00253995681
-0.00246535219
-0.00239082756
-0.00231638174
-0.00224201342
-0.00216772111
-0.00209350318
-0.00201935787
-0.00194528329
-0.00187127743
-0.00179733821
-0.00172346345
-0.0016496509
-0.00157589823
-0.00150220308
-0.00142856303
-0.00135497563
-0.0012814384
-0.00120794882
-0.00113450435
-0.00106110245
-0.000987740526
-0.000914415994
-0.000841126253
-0.000767868691
-0.000694640671
-0.000621439551
-0.000548262664
-0.000475107404
-0.000401970816
-0.000328851068
-0.000255742485
-0.000182653059
-0.000109547979
-3.65679509e-05
-0.0143513541
-0.0143514828
-0.0143519488
-0.0143528044
-0.0143539512
-0.014355298
-0.0143568148
-0.0143584904
-0.0143602903
-0.0143621563
-0.0143640253
-0.0143658336
-0.0143675021
-0.0143689639
-0.0143701335
-0.0143709245
-0.0143712318
-0.0143709466
-0.0143699541
-0.0143681302
-0.0143653439
-0.0143614603
-0.0143563302
-0.0143497311
-0.0143418113
-0.0143321587
-0.0143206228
-0.0143070508
-0.0142912952
-0.0142731924
-0.0142525664
-0.0142292423
-0.0142030474
-0.0141738097
-0.014141359
-0.0141055293
-0.0140661603
-0.0140231008
-0.0139762109
-0.013925365
-0.0138704536
-0.0138113855
-0.0137480904
-0.0136805218
-0.013608658
-0.0135325033
-0.0134520864
-0.01336746
-0.0132786986
-0.0131858984
-0.0130891757
-0.0129886659
-0.0128845222
-0.0127769145
-0.0126660287
-0.0125520648
-0.0124352358
-0.0123157654
-0.0121938858
-0.0120698353
-0.0119438551
-0.0118161869
-0.01168707
-0.0115567389
-0.0114254211
-0.0112933348
-0.0111606875
-0.0110276741
-0.0108944762
-0.0107612603
-0.010628178
-0.0104953651
-0.0103629418
-0.0102310128
-0.0100996677
-0.00996898175
-0.00983901671
-0.00970982167
-0.0095814342
-0.00945388149
-0.00932718172
-0.00920134532
-0.0090763765
-0.00895227476
-0.00882903625
-0.00870665462
-0.008585121
-0.00846445318
-0.00834463208
-0.00822567168
-0.00810758826
-0.0079904049
-0.0078741525
-0.0077588712
-0.00764461143
-0.00753143413
-0.00741941048
-0.00730862111
-0.00719915454
-0.00709110476
-0.00698456798
-0.00687963866
-0.00677640505
-0.00667494431
-0.00657531788
-0.00647756716
-0.00638171024
-0.0062877397
-0.00619562193
-0.00610529791
-0.00601668541
-0.00592968233
-0.00584417097
-0.0057600226
-0.00567710228
-0.00559527332
-0.00551440129
-0.00543435732
-0.00535502077
-0.00527628103
-0.00519803865
-0.00512020592
-0.00504270685
-0.00496547678
-0.00488846166
-0.00481161722
-0.00473490793
-0.00465830591
-0.00458178997
-0.00450534447
-0.0044289585
-0.00435262497
-0.00427633983
-0.00420010142
-0.00412390992
-0.00404776676
-0.00397167422
-0.00389563508
-0.00381965237
-0.00374372941
-0.00366786993
-0.00359207788
-0.00351635702
-0.00344070977
-0.00336513676
-0.00328964297
-0.00321422915
-0.00313889547
-0.00306364215
-0.00298847099
-0.002913383
-0.0028383785
-0.00276345764
-0.00268862041
-0.00261386646
-0.00253919522
-0.00246460588
-0.00239009742
-0.00231566861
-0.00224131806
-0.0021670442
-0.00209284532
-0.00201871959
-0.00194466507
-0.0018706797
-0.00179676137
-0.00172290788
-0.00164911693
-0.00157538619
-0.00150171328
-0.00142809575
-0.00135453113
-0.00128101692
-0.00120755055
-0.00113412946
-0.00106075106
-0.000987412728
-0.000914111835
-0.000840845739
-0.000767611793
-0.000694407322
-0.00062122965
-0.000548076078
-0.00047494397
-0.000401830346
-0.000328733345
-0.000255647345
-0.000182580473
-0.000109499472
-3.65471298e-05
-0.0143479851
-0.0143481686
-0.0143487557
-0.0143498011
-0.0143512047
-0.0143528758
-0.0143547875
-0.0143569314
-0.0143592745
-0.0143617589
-0.0143643195
-0.0143668918
-0.0143694057
-0.0143717809
-0.0143739373
-0.0143757805
-0.0143772121
-0.0143781245
-0.0143784007
-0.0143779159
-0.0143765363
-0.014374115
-0.014370499
-0.0143655734
-0.0143591826
-0.014351146
-0.0143412671
-0.0143294068
-0.0143153847
-0.0142990172
-0.0142801208
-0.0142585097
-0.014233996
-0.0142063912
-0.0141755086
-0.0141411652
-0.0141031837
-0.0140613956
-0.0140156435
-0.0139657853
-0.0139116978
-0.0138532802
-0.0137904562
-0.0137231741
-0.0136514074
-0.0135751543
-0.0134944387
-0.0134093104
-0.0133198451
-0.0132261429
-0.0131283271
-0.0130265425
-0.012920954
-0.0128117452
-0.0126991178
-0.0125832891
-0.0124644907
-0.012342966
-0.0122189679
-0.0120927553
-0.0119645904
-0.0118347356
-0.0117034501
-0.0115709873
-0.0114375921
-0.0113034984
-0.0111689276
-0.0110340862
-0.0108991649
-0.0107643376
-0.0106297605
-0.0104955716
-0.0103618913
-0.0102288223
-0.0100964505
-0.0099648454
-0.00983406189
-0.0097041409
-0.00957511088
-0.00944698929
-0.0093197841
-0.0091934953
-0.00906811663
-0.00894363728
-0.00882004382
-0.00869732137
-0.00857545619
-0.00845442536
-0.00833424021
-0.00821489374
-0.00809639147
-0.00797875108
-0.00786199985
-0.00774617665
-0.00763133352
-0.00751753631
-0.00740486489
-0.00729341232
-0.00718328329
-0.00707459137
-0.00696745501
-0.00686199259
-0.00675831654
-0.00665652698
-0.00655670531
-0.00645890844
-0.00636316414
-0.00626946806
-0.00617778279
-0.00608803892
-0.00600013811
-0.0059139577
-0.00582935649
-0.00574618087
-0.00566427108
-0.00558346695
-0.00550361285
-0.00542456165
-0.00534617772
-0.00526833884
-0.00519093722
-0.0051138798
-0.00503708786
-0.00496049624
-0.00488405217
-0.00480771407
-0.00473145007
-0.00465523664
-0.00457905734
-0.00450290148
-0.00442676305
-0.00435063974
-0.00427453205
-0.00419844256
-0.00412237534
-0.00404633547
-0.00397032871
-0.00389436114
-0.00381843879
-0.00374256717
-0.00366675109
-0.00359099488
-0.00351530312
-0.00343968152
-0.00336412866
-0.00328865061
-0.00321324902
-0.00313792868
-0.00306269069
-0.00298753489
-0.0029124623
-0.00283747368
-0.0027625693
-0.00268774918
-0.00261301301
-0.00253836022
-0.00246379003
-0.00238930139
-0.00231489307
-0.00224056365
-0.00216631156
-0.00209213504
-0.00201803225
-0.00194400119
-0.00187003975
-0.00179614578
-0.00172231701
-0.00164855111
-0.00157484569
-0.00150119831
-0.0014276065
-0.00135406772
-0.00128057944
-0.00120713909
-0.00113374407
-0.00106039176
-0.000987079546
-0.000913804768
-0.000840564779
-0.000767356917
-0.000694178494
-0.000621026814
-0.000547899158
-0.000474792868
-0.00040170494
-0.000328633508
-0.000255572877
-0.000182531146
-0.000109473728
-3.65425805e-05
-0.0143441479
-0.0143443943
-0.0143451201
-0.0143463821
-0.0143480771
-0.0143501131
-0.0143524649
-0.0143551263
-0.0143580657
-0.0143612266
-0.0143645456
-0.0143679596
-0.0143714024
-0.0143747977
-0.0143780569
-0.0143810875
-0.0143837895
-0.0143860527
-0.0143877578
-0.0143887755
-0.014388967
-0.0143881849
-0.0143862604
-0.0143831416
-0.0143785723
-0.0143724035
-0.0143644685
-0.0143545681
-0.0143425216
-0.0143281418
-0.0143112305
-0.0142915849
-0.0142690004
-0.0142432711
-0.0142141912
-0.0141815579
-0.014145174
-0.0141048513
-0.0140604147
-0.0140117056
-0.0139585849
-0.0139009362
-0.0138386683
-0.013771718
-0.0137000507
-0.0136236611
-0.0135425725
-0.0134568363
-0.0133665306
-0.01327176
-0.0131726547
-0.0130693696
-0.012962083
-0.0128509949
-0.0127363254
-0.0126183127
-0.0124972106
-0.012373286
-0.012246816
-0.0121180846
-0.0119873791
-0.0118549863
-0.0117211892
-0.0115862635
-0.0114504747
-0.0113140753
-0.0111773027
-0.011040377
-0.0109034999
-0.010766853
-0.0106305978
-0.0104948749
-0.0103598044
-0.0102254863
-0.0100920014
-0.00995941251
-0.00982776571
-0.00969709187
-0.00956740836
-0.00943872076
-0.00931102474
-0.00918430778
-0.00905855102
-0.00893373108
-0.0088098217
-0.00868679617
-0.00856462984
-0.00844329774
-0.00832277897
-0.00820306582
-0.00808415693
-0.00796605964
-0.00784879505
-0.00773239909
-0.00761692424
-0.00750244101
-0.00738903856
-0.00727682436
-0.00716592257
-0.00705647101
-0.00694861638
-0.00684250794
-0.00673828988
-0.0066360928
-0.00653602489
-0.006438164
-0.00634255107
-0.00624918593
-0.00615802603
-0.00606898793
-0.0059819517
-0.00589676737
-0.00581326282
-0.00573125219
-0.00565054405
-0.00557094885
-0.00549228497
-0.00541438355
-0.00533709168
-0.00526027437
-0.00518381527
-0.00510761649
-0.00503159771
-0.0049556947
-0.00487985773
-0.00480404966
-0.00472824411
-0.00465242367
-0.00457657823
-0.00450070352
-0.00442479973
-0.00434887048
-0.00427292178
-0.00419696128
-0.00412099766
-0.00404503998
-0.00396909727
-0.00389317829
-0.00381729146
-0.00374144494
-0.0036656464
-0.00358990248
-0.00351421868
-0.00343860838
-0.00336306559
-0.0032875956
-0.00321220188
-0.00313688714
-0.00306165488
-0.00298650648
-0.00291144287
-0.00283646473
-0.00276157234
-0.00268676568
-0.00261204442
-0.00253740794
-0.00246285536
-0.00238838558
-0.00231399729
-0.00223968899
-0.00216545904
-0.00209130561
-0.00201722676
-0.00194322044
-0.00186928448
-0.00179541664
-0.00172161461
-0.001647876
-0.00157419836
-0.0015005792
-0.001427016
-0.00135350618
-0.00128004717
-0.00120663633
-0.00113327103
-0.00105994862
-0.000986666417
-0.000913421737
-0.000840211887
-0.000767034169
-0.000693885862
-0.000620764244
-0.000547666573
-0.000474590172
-0.000401532029
-0.000328490262
-0.000255459218
-0.000182447043
-0.000109420153
-3.65216106e-05
-0.0143397476
-0.0143400642
-0.0143409449
-0.0143424485
-0.0143444679
-0.0143469105
-0.0143497534
-0.0143529934
-0.0143566008
-0.0143605202
-0.0143646895
-0.0143690467
-0.0143735249
-0.0143780473
-0.0143825287
-0.0143868758
-0.0143909874
-0.0143947527
-0.0143980515
-0.0144007546
-0.0144027252
-0.0144038212
-0.0144039066
-0.0144027195
-0.0144001927
-0.0143961325
-0.0143903518
-0.0143826592
-0.0143728553
-0.0143607335
-0.0143460812
-0.0143286787
-0.0143083017
-0.0142847229
-0.0142577143
-0.0142270501
-0.0141925099
-0.0141538823
-0.0141109691
-0.0140635892
-0.0140115837
-0.01395482
-0.0138931944
-0.0138266332
-0.0137550938
-0.0136785643
-0.0135970633
-0.0135106403
-0.0134193755
-0.0133233789
-0.0132227901
-0.0131177766
-0.0130085327
-0.0128952773
-0.0127782526
-0.012657721
-0.0125339623
-0.0124072715
-0.0122779545
-0.0121463245
-0.0120126986
-0.0118773927
-0.0117407178
-0.011602976
-0.0114644569
-0.0113254348
-0.0111861657
-0.0110468855
-0.0109078079
-0.0107691236
-0.0106309993
-0.010493578
-0.0103569786
-0.0102212973
-0.0100866085
-0.00995296634
-0.0098204062
-0.00968894694
-0.00955859266
-0.00942933488
-0.00930115464
-0.00917402451
-0.00904791062
-0.00892277469
-0.00879857599
-0.00867527325
-0.00855282583
-0.00843119434
-0.00831034772
-0.00819026439
-0.00807092917
-0.00795233936
-0.00783450813
-0.00771746649
-0.00760126594
-0.00748598094
-0.00737171048
-0.00725857836
-0.00714673197
-0.00703633906
-0.00692758212
-0.00682065044
-0.00671573013
-0.00661299254
-0.0065125822
-0.00641460546
-0.00631912128
-0.00622613524
-0.00613559763
-0.00604740585
-0.00596141062
-0.00587742532
-0.00579523691
-0.00571461749
-0.00563533519
-0.00555716373
-0.00547988989
-0.00540331912
-0.00532727901
-0.00525162092
-0.00517622019
-0.00510097525
-0.00502580585
-0.00495065085
-0.00487546572
-0.00480022007
-0.00472489515
-0.00464948163
-0.00457397758
-0.00449838664
-0.00442271657
-0.00434697797
-0.00427118324
-0.00419534575
-0.00411947931
-0.00404359761
-0.00396771402
-0.00389184116
-0.0038159905
-0.00374017219
-0.00366439514
-0.00358866716
-0.00351298709
-0.00343738472
-0.00336185131
-0.00328638893
-0.00321100475
-0.00313570071
-0.0030604793
-0.00298534261
-0.00291029189
-0.002835328
-0.00276045133
-0.0026856619
-0.00261095936
-0.00253634307
-0.00246181212
-0.00238736532
-0.00231300128
-0.00223871841
-0.00216451496
-0.00209038901
-0.00201633852
-0.00194236134
-0.00186845522
-0.00179461784
-0.00172084681
-0.00164713967
-0.0015734939
-0.00149990698
-0.0014263763
-0.00135289926
-0.00127947321
-0.0012060955
-0.00113276345
-0.00105947438
-0.000986225591
-0.000913014371
-0.00083983801
-0.000766693794
-0.000693578984
-0.000620490839
-0.000547426601
-0.000474383576
-0.000401358737
-0.000328350197
-0.00025535227
-0.000182373079
-0.000109378282
-3.65101479e-05
-0.0143346781
-0.014335072
-0.014336123
-0.014337892
-0.0143402679
-0.0143431565
-0.0143465373
-0.0143504101
-0.014354747
-0.0143594944
-0.0143645919
-0.0143699794
-0.0143755913
-0.0143813533
-0.0143871795
-0.014392977
-0.0143986443
-0.0144040702
-0.0144091329
-0.0144137008
-0.0144176328
-0.0144207785
-0.0144229756
-0.0144240406
-0.01442382
-0.0144221322
-0.0144187852
-0.0144135792
-0.0144062985
-0.0143967231
-0.0143846238
-0.0143697611
-0.0143518882
-0.0143307542
-0.0143061053
-0.014277689
-0.0142452574
-0.0142085719
-0.014167408
-0.0141215601
-0.0140708469
-0.0140151151
-0.013954243
-0.0138881425
-0.01381676
-0.0137400766
-0.0136581071
-0.0135709004
-0.0134785389
-0.0133811385
-0.0132788482
-0.0131718495
-0.013060355
-0.0129446064
-0.0128248716
-0.0127014417
-0.012574628
-0.012444758
-0.0123121717
-0.0121772175
-0.0120402471
-0.0119016108
-0.0117616527
-0.0116207058
-0.0114790881
-0.0113370992
-0.0111950168
-0.0110530945
-0.0109115602
-0.0107706141
-0.0106304289
-0.0104911491
-0.010352892
-0.0102157483
-0.0100797843
-0.00994504303
-0.00981154687
-0.00967929986
-0.00954829004
-0.00941849206
-0.00928986961
-0.00916237774
-0.00903596512
-0.00891057614
-0.00878615282
-0.0086626367
-0.00853997093
-0.00841810172
-0.00829697819
-0.00817656181
-0.00805682396
-0.0079377482
-0.00781933539
-0.00770160797
-0.00758461347
-0.00746842822
-0.00735316045
-0.00723895181
-0.00712597689
-0.0070144401
-0.00690456928