/*--------------------------------*- C++ -*----------------------------------*\
| =========                 |                                                 |
| \\      /  F ield         | OpenFOAM: The Open Source CFD Toolbox           |
|  \\    /   O peration     | Version:  v2012                                 |
|   \\  /    A nd           | Website:  www.openfoam.com                      |
|    \\/     M anipulation  |                                                 |
\*---------------------------------------------------------------------------*/
FoamFile
{
    version     2.0;
    format      ascii;
    class       surfaceScalarField;
    location    "2.89";
    object      phiHbyA;
}
// * * * * * * * * * * * * * * * * * * * * * * * * * * * * * * * * * * * * * //

dimensions      [0 3 -1 0 0 0 0];
oriented        oriented;


internalField   nonuniform List<scalar> 
56481
(
6.66702001e-07
-7.35377364e-11
6.66808094e-07
-2.59210164e-10
6.66993374e-07
-4.81784518e-10
6.67259809e-07
-7.17500887e-10
6.67597833e-07
-9.2534279e-10
6.67984768e-07
-1.05801834e-09
6.6838781e-07
-1.07970247e-09
6.68770076e-07
-9.77941098e-10
6.69096782e-07
-7.63764348e-10
6.6933927e-07
-4.6414375e-10
6.69478492e-07
-1.09826163e-10
6.69550184e-07
2.48467724e-10
6.69550995e-07
5.84942059e-10
6.69487288e-07
8.64755961e-10
6.69371627e-07
1.06763111e-09
6.6922078e-07
1.18387031e-09
6.69052375e-07
1.21362833e-09
6.68882853e-07
1.16481091e-09
6.6872653e-07
1.05014409e-09
6.68594754e-07
8.8611188e-10
6.68494667e-07
6.93911893e-10
6.68426952e-07
5.01109263e-10
6.683841e-07
3.42156406e-10
6.68355513e-07
2.50964147e-10
6.68319466e-07
2.57479419e-10
6.68246816e-07
3.7851395e-10
6.68108182e-07
6.12219992e-10
6.67879577e-07
9.39195455e-10
6.67545813e-07
1.3266276e-09
6.67101832e-07
1.73506193e-09
6.66552144e-07
2.1257621e-09
6.65908855e-07
2.46641091e-09
6.65188989e-07
2.73428069e-09
6.64411861e-07
2.91707553e-09
6.63597e-07
3.01219785e-09
6.62762734e-07
3.02534709e-09
6.61925207e-07
2.9691777e-09
6.6109744e-07
2.86234422e-09
6.60288132e-07
2.72879299e-09
6.59500221e-07
2.59676213e-09
6.58729564e-07
2.49680434e-09
6.57964453e-07
2.45837625e-09
6.57186673e-07
2.50514219e-09
6.56374365e-07
2.64991892e-09
6.55506213e-07
2.89078328e-09
6.54565843e-07
3.20993699e-09
6.53545182e-07
3.57629122e-09
6.5244588e-07
3.95155888e-09
6.51278525e-07
4.29836835e-09
6.5005999e-07
4.58807006e-09
6.48809771e-07
4.80590156e-09
6.47546352e-07
4.95205085e-09
6.46284516e-07
5.03861049e-09
6.45034173e-07
5.08383345e-09
6.43800677e-07
5.10589578e-09
6.42586214e-07
5.11823801e-09
6.41391531e-07
5.12763141e-09
6.40217393e-07
5.13489809e-09
6.39065366e-07
5.13725698e-09
6.37937929e-07
5.13095176e-09
6.36838123e-07
5.11312018e-09
6.35769069e-07
5.08250727e-09
6.34733581e-07
5.03922183e-09
6.33733987e-07
4.98404742e-09
6.32772129e-07
4.91778373e-09
6.3184947e-07
4.84088433e-09
6.30967202e-07
4.75340246e-09
6.30126337e-07
4.65510538e-09
6.29327753e-07
4.54563797e-09
6.28572224e-07
4.42462558e-09
6.27860438e-07
4.29170195e-09
6.27193033e-07
4.14650983e-09
6.26570641e-07
3.98868597e-09
6.25993931e-07
3.81785176e-09
6.25463681e-07
3.63363053e-09
6.24980857e-07
3.43566171e-09
6.24546784e-07
3.22358968e-09
6.24163543e-07
2.99700206e-09
6.2383324e-07
2.75512016e-09
6.23556841e-07
2.49675185e-09
6.2333615e-07
2.22062542e-09
6.23173287e-07
1.92655709e-09
6.23068915e-07
1.61523473e-09
6.23023152e-07
1.28590924e-09
6.23034711e-07
9.38936617e-10
6.23099952e-07
5.76829468e-10
6.23211276e-07
2.04341583e-10
6.23374765e-07
-1.83424155e-10
6.23627984e-07
-5.73798553e-10
6.23965543e-07
-9.65972089e-10
6.2438742e-07
-1.36607588e-09
6.24893014e-07
-1.77278056e-09
6.25482131e-07
-2.18444311e-09
6.26154613e-07
-2.59943343e-09
6.26909828e-07
-3.01522408e-09
6.27746574e-07
-3.42860632e-09
6.28663009e-07
-3.83602291e-09
6.29656512e-07
-4.23362884e-09
6.3072359e-07
-4.61732515e-09
6.31859845e-07
-4.98286343e-09
6.33059983e-07
-5.32596306e-09
6.34317852e-07
-5.64242775e-09
6.35626501e-07
-5.92829129e-09
6.36978272e-07
-6.17995284e-09
6.38364906e-07
-6.39431433e-09
6.39777671e-07
-6.56888059e-09
6.41207513e-07
-6.70186214e-09
6.42645222e-07
-6.79221495e-09
6.44081612e-07
-6.83967825e-09
6.45507702e-07
-6.84476231e-09
6.46914889e-07
-6.80872159e-09
6.48295105e-07
-6.73348334e-09
6.49640954e-07
-6.62157729e-09
6.50945817e-07
-6.47603774e-09
6.52203925e-07
-6.30028449e-09
6.5341041e-07
-6.09801934e-09
6.54561317e-07
-5.87311203e-09
6.55653596e-07
-5.62948276e-09
6.56685072e-07
-5.37101357e-09
6.5765439e-07
-5.10146174e-09
6.58560958e-07
-4.82438036e-09
6.59404864e-07
-4.54307158e-09
6.60186805e-07
-4.26054007e-09
6.60907997e-07
-3.97947072e-09
6.615701e-07
-3.70220718e-09
6.62175135e-07
-3.43075583e-09
6.6272541e-07
-3.16679157e-09
6.63223451e-07
-2.91166651e-09
6.63671941e-07
-2.66643455e-09
6.64073668e-07
-2.43187416e-09
6.64431488e-07
-2.20851166e-09
6.64748283e-07
-1.996655e-09
6.65026922e-07
-1.7964231e-09
6.6527024e-07
-1.60777235e-09
6.65481023e-07
-1.43052832e-09
6.65661998e-07
-1.26441392e-09
6.65815819e-07
-1.10907728e-09
6.65945055e-07
-9.6412394e-10
6.66052177e-07
-8.29142362e-10
6.66139555e-07
-7.03725437e-10
6.66209429e-07
-5.87493626e-10
6.6626386e-07
-4.80108326e-10
6.66304651e-07
-3.8127466e-10
6.66333251e-07
-2.90726105e-10
6.66350698e-07
-2.08183153e-10
6.66357646e-07
-1.33273234e-10
6.66354472e-07
-6.54448035e-11
6.66340725e-07
-3.26204112e-12
6.66322183e-07
5.12792069e-11
6.6629809e-07
1.01527829e-10
6.66268477e-07
1.46240978e-10
6.66233603e-07
1.85880656e-10
6.66193971e-07
2.20836034e-10
6.66150171e-07
2.51499368e-10
6.6610278e-07
2.78292349e-10
6.66052345e-07
3.01602195e-10
6.65999369e-07
3.21777472e-10
6.65944306e-07
3.3912857e-10
6.65887562e-07
3.53928457e-10
6.658295e-07
3.66418116e-10
6.65770442e-07
3.76810764e-10
6.65710668e-07
3.8529654e-10
6.6565042e-07
3.92045807e-10
6.65589907e-07
3.97213753e-10
6.65529311e-07
4.00942238e-10
6.65468787e-07
4.03362525e-10
6.65408471e-07
4.04596139e-10
6.65348481e-07
4.04756056e-10
6.65288922e-07
4.03946495e-10
6.65229887e-07
4.02263872e-10
6.65171459e-07
3.99797009e-10
6.65113712e-07
3.96626657e-10
6.65056711e-07
3.92826245e-10
6.65000513e-07
3.88462036e-10
6.64945168e-07
3.83592775e-10
6.64890721e-07
3.78270728e-10
6.64837205e-07
3.72542255e-10
6.64784652e-07
3.66447991e-10
6.64733084e-07
3.60024317e-10
6.64682526e-07
3.53303737e-10
6.64632998e-07
3.46314693e-10
6.64584519e-07
3.3908034e-10
6.64537107e-07
3.31620032e-10
6.64490782e-07
3.23947005e-10
6.6444557e-07
3.16075494e-10
6.64401514e-07
3.07977399e-10
6.64358645e-07
2.99753986e-10
6.64317155e-07
2.90843551e-10
6.64276877e-07
2.83287634e-10
2.67670308e-10
6.66686945e-07
-9.43831677e-11
6.6677612e-07
-3.49375036e-10
6.66948992e-07
-6.56014945e-10
6.67214265e-07
-9.84247561e-10
6.67567527e-07
-1.28013058e-09
6.67986837e-07
-1.47892729e-09
6.6843583e-07
-1.53034594e-09
6.68871678e-07
-1.41542735e-09
6.6925361e-07
-1.14726861e-09
6.69550383e-07
-7.62371223e-10
6.69749505e-07
-3.1005525e-10
6.69831479e-07
1.64969225e-10
6.69808389e-07
6.06948602e-10
6.69700377e-07
9.71817491e-10
6.69530691e-07
1.23658363e-09
6.69322861e-07
1.39115615e-09
6.69099452e-07
1.43662398e-09
6.68881494e-07
1.3824542e-09
6.68687572e-07
1.24383105e-09
6.68532886e-07
1.0406297e-09
6.68427677e-07
7.99012934e-10
6.6837494e-07
5.53794933e-10
6.68368981e-07
3.48128689e-10
6.68391918e-07
2.2818156e-10
6.68416128e-07
2.33608939e-10
6.68407958e-07
3.87194784e-10
6.68331794e-07
6.89069429e-10
6.68156278e-07
1.11558962e-09
6.67859649e-07
1.62434077e-09
6.67432667e-07
2.16333949e-09
6.66878854e-07
2.68109003e-09
6.66212439e-07
3.13456743e-09
6.65454999e-07
3.49369305e-09
6.64631859e-07
3.74242207e-09
6.63769009e-07
3.87749019e-09
6.62890848e-07
3.90618602e-09
6.6201861e-07
3.84432272e-09
6.61169088e-07
3.71499527e-09
6.6035327e-07
3.54794704e-09
6.59574852e-07
3.37870625e-09
6.58828944e-07
3.24640885e-09
6.58101604e-07
3.18956606e-09
6.57370832e-07
3.23990249e-09
6.56609387e-07
3.41548021e-09
6.55789237e-07
3.7151629e-09
6.54886866e-07
4.11663818e-09
6.53888112e-07
4.57945598e-09
6.52791167e-07
5.05297464e-09
6.51606755e-07
5.48729227e-09
6.50355384e-07
5.84397031e-09
6.49062546e-07
6.10326758e-09
6.47753324e-07
6.26577862e-09
6.46448016e-07
6.34838108e-09
6.45159861e-07
6.37638655e-09
6.43895137e-07
6.37493348e-09
6.42655064e-07
6.36251979e-09
6.4143847e-07
6.3483124e-09
6.40244143e-07
6.33317165e-09
6.39072221e-07
6.31297067e-09
6.37924478e-07
6.28231908e-09
6.36803832e-07
6.2372115e-09
6.35713571e-07
6.17602649e-09
6.34656702e-07
6.09915523e-09
6.33635624e-07
6.00799003e-09
6.32652113e-07
5.90395961e-09
6.31707466e-07
5.78799468e-09
6.3080269e-07
5.66044223e-09
6.29938635e-07
5.52122865e-09
6.29116059e-07
5.37009065e-09
6.28335658e-07
5.20671907e-09
6.27598079e-07
5.030795e-09
6.26903951e-07
4.84198113e-09
6.26253927e-07
4.63989165e-09
6.25648737e-07
4.42407087e-09
6.25089246e-07
4.19400576e-09
6.2457652e-07
3.94913664e-09
6.24111883e-07
3.68885121e-09
6.23696921e-07
3.41247262e-09
6.23333238e-07
3.11920423e-09
6.23022137e-07
2.80814784e-09
6.22764426e-07
2.47852962e-09
6.22560975e-07
2.13006311e-09
6.22412843e-07
1.76322808e-09
6.22321131e-07
1.37722262e-09
6.22288457e-07
9.70865853e-10
6.22320118e-07
5.44034383e-10
6.22428289e-07
9.47838391e-11
6.22601104e-07
-3.57769716e-10
6.22848139e-07
-8.22093994e-10
6.23175614e-07
-1.29492597e-09
6.23586078e-07
-1.77820177e-09
6.24082553e-07
-2.27103024e-09
6.24666857e-07
-2.77066046e-09
6.25339771e-07
-3.27441695e-09
6.26101497e-07
-3.77917408e-09
6.26951557e-07
-4.28105e-09
6.27888619e-07
-4.77563008e-09
6.28910391e-07
-5.25810904e-09
6.30013552e-07
-5.72335284e-09
6.31193693e-07
-6.16602372e-09
6.32445301e-07
-6.58073467e-09
6.33761782e-07
-6.9622039e-09
6.35135519e-07
-7.3054397e-09
6.36557966e-07
-7.60591139e-09
6.38019786e-07
-7.8597251e-09
6.39511013e-07
-8.0637563e-09
6.41021256e-07
-8.21578668e-09
6.42539912e-07
-8.31456305e-09
6.44056407e-07
-8.35985002e-09
6.45560423e-07
-8.35241625e-09
6.47042123e-07
-8.29399644e-09
6.48492343e-07
-8.18719369e-09
6.49902758e-07
-8.0353791e-09
6.51266012e-07
-7.84255572e-09
6.52575797e-07
-7.613197e-09
6.53826905e-07
-7.35210521e-09
6.55015234e-07
-7.06425981e-09
6.56137764e-07
-6.75466493e-09
6.57192504e-07
-6.42823495e-09
6.58178419e-07
-6.08968594e-09
6.59095341e-07
-5.74343883e-09
6.59943868e-07
-5.3935643e-09
6.60725258e-07
-5.04373028e-09
6.61441329e-07
-4.69717984e-09
6.6209435e-07
-4.35671171e-09
6.62686951e-07
-4.02469174e-09
6.63222031e-07
-3.70306674e-09
6.63702684e-07
-3.39338169e-09
6.64132125e-07
-3.09681448e-09
6.64513635e-07
-2.81420721e-09
6.64850505e-07
-2.54609802e-09
6.65145998e-07
-2.29276657e-09
6.65403319e-07
-2.05427312e-09
6.65625588e-07
-1.83048904e-09
6.65815815e-07
-1.62113092e-09
6.65976884e-07
-1.42579464e-09
6.66111541e-07
-1.243991e-09
6.66222383e-07
-1.07517641e-09
6.66311839e-07
-9.1877208e-10
6.6638215e-07
-7.74180538e-10
6.66435337e-07
-6.40804959e-10
6.6647319e-07
-5.18072254e-10
6.66497285e-07
-4.0547804e-10
6.6650908e-07
-3.02630816e-10
6.66509951e-07
-2.09171257e-10
6.66501217e-07
-1.24657531e-10
6.6648426e-07
-4.85948851e-11
6.6646054e-07
2.03886983e-11
6.6642959e-07
8.21612554e-11
6.66393317e-07
1.37750742e-10
6.66352314e-07
1.87210704e-10
6.66307207e-07
2.30978141e-10
6.66258489e-07
2.695615e-10
6.66206608e-07
3.03400727e-10
6.66152004e-07
3.32925922e-10
6.660951e-07
3.58544477e-10
6.66036294e-07
3.80628558e-10
6.65975956e-07
3.99516381e-10
6.65914426e-07
4.15513257e-10
6.65852008e-07
4.28893814e-10
6.65788975e-07
4.39904419e-10
6.65725567e-07
4.48767034e-10
6.65661994e-07
4.55681705e-10
6.65598442e-07
4.60830753e-10
6.65535069e-07
4.64380168e-10
6.65472014e-07
4.66482471e-10
6.65409398e-07
4.67277732e-10
6.65347325e-07
4.66895118e-10
6.65285884e-07
4.65452869e-10
6.65225153e-07
4.63059602e-10
6.65165199e-07
4.59814761e-10
6.65106082e-07
4.55808285e-10
6.6504785e-07
4.51121699e-10
6.64990546e-07
4.45828495e-10
6.64934206e-07
4.39993887e-10
6.64878862e-07
4.33676049e-10
6.64824537e-07
4.26926702e-10
6.64771253e-07
4.19791103e-10
6.64719026e-07
4.12309425e-10
6.64667869e-07
4.04516763e-10
6.64617796e-07
3.96443559e-10
6.64568817e-07
3.88114569e-10
6.6452094e-07
3.79550115e-10
6.64474177e-07
3.70762974e-10
6.64428534e-07
3.61769166e-10
6.64384029e-07
3.52534729e-10
6.64340623e-07
3.43201452e-10
6.64298388e-07
3.33146846e-10
6.64256644e-07
3.24960498e-10
3.08207366e-10
6.66695502e-07
-1.22882879e-10
6.66792513e-07
-4.46074717e-10
6.66971876e-07
-8.34912752e-10
6.67240195e-07
-1.25187907e-09
6.67591625e-07
-1.63072188e-09
6.68004985e-07
-1.89139837e-09
6.68446159e-07
-1.9706413e-09
6.68874922e-07
-1.84333548e-09
6.69252457e-07
-1.52398186e-09
6.6954727e-07
-1.05642705e-09
6.69739207e-07
-5.01361553e-10
6.69830777e-07
7.41464291e-11
6.69828108e-07
6.09958726e-10
6.69742507e-07
1.05762215e-09
6.69592903e-07
1.38624702e-09
6.69401873e-07
1.58212536e-09
6.69192347e-07
1.64602124e-09
6.68985529e-07
1.58910748e-09
6.68799935e-07
1.4292448e-09
6.68650577e-07
1.18980449e-09
6.68547698e-07
9.01714006e-10
6.68494856e-07
6.06471497e-10
6.68486579e-07
3.56254327e-10
6.68506561e-07
2.08047442e-10
6.6852799e-07
2.11982608e-10
6.68517063e-07
3.97849824e-10
6.68439178e-07
7.66579574e-10
6.68264768e-07
1.28951238e-09
6.67973419e-07
1.91509056e-09
6.67556049e-07
2.57999805e-09
6.67015137e-07
3.22117881e-09
6.66363127e-07
3.78564135e-09
6.65619635e-07
4.23613533e-09
6.64808294e-07
4.55259928e-09
6.63953908e-07
4.73059735e-09
6.63080229e-07
4.77847077e-09
6.622083e-07
4.71474166e-09
6.61355076e-07
4.56659343e-09
6.60532009e-07
4.36927745e-09
6.59743491e-07
4.16538557e-09
6.58985458e-07
4.00251206e-09
6.58244809e-07
3.92820529e-09
6.57500358e-07
3.98227353e-09
6.56725677e-07
4.18801715e-09
6.55893549e-07
4.54509062e-09
6.5498109e-07
5.02684834e-09
6.53974298e-07
5.58396221e-09
6.52870827e-07
6.15413226e-09
6.5168024e-07
6.6755491e-09
6.5042163e-07
7.10024286e-09
6.49119288e-07
7.40327327e-09
6.47797688e-07
7.58505388e-09
6.46477224e-07
7.66654007e-09
6.45171811e-07
7.6795244e-09
6.43888698e-07
7.65581121e-09
6.42630069e-07
7.61896162e-09
6.41395489e-07
7.58076319e-09
6.40184167e-07
7.542429e-09
6.38996373e-07
7.49877188e-09
6.37833824e-07
7.44295409e-09
6.36699301e-07
7.3699033e-09
6.35595956e-07
7.27762795e-09
6.34526694e-07
7.16676412e-09
6.33493844e-07
7.03927924e-09
6.32499116e-07
6.89721856e-09
6.31543737e-07
6.74199743e-09
6.30628621e-07
6.57427267e-09
6.29754511e-07
6.39414346e-09
6.28922048e-07
6.20144414e-09
6.28131814e-07
5.99592912e-09
6.27384348e-07
5.77731934e-09
6.26680178e-07
5.54528758e-09
6.26019865e-07
5.29941622e-09
6.25404054e-07
5.03916777e-09
6.24833516e-07
4.76389897e-09
6.24309196e-07
4.47287899e-09
6.23832234e-07
4.1653007e-09
6.23403954e-07
3.84030054e-09
6.23025798e-07
3.49696616e-09
6.22699241e-07
3.13436644e-09
6.22425839e-07
2.75164661e-09
6.22207555e-07
2.34811813e-09
6.22047348e-07
1.92327152e-09
6.21948108e-07
1.47641091e-09
6.21912099e-07
1.00703029e-09
6.21938421e-07
5.18176394e-10
6.22016882e-07
1.69199305e-11
6.22172736e-07
-5.12989815e-10
6.22404744e-07
-1.0535179e-09
6.22719517e-07
-1.60899566e-09
6.23119788e-07
-2.17767309e-09
6.23607639e-07
-2.75800046e-09
6.241854e-07
-3.34745886e-09
6.24854821e-07
-3.94278889e-09
6.25616859e-07
-4.54006958e-09
6.26471669e-07
-5.13462214e-09
6.27418478e-07
-5.72110709e-09
6.28455445e-07
-6.29365054e-09
6.29579555e-07
-6.84594319e-09
6.30786534e-07
-7.37139559e-09
6.32070818e-07
-7.86332722e-09
6.33425548e-07
-8.31516444e-09
6.34842625e-07
-8.72067809e-09
6.36312819e-07
-9.07420592e-09
6.37825926e-07
-9.37088194e-09
6.39370974e-07
-9.60681377e-09
6.40936468e-07
-9.77926246e-09
6.42510665e-07
-9.88672422e-09
6.44081852e-07
-9.92899827e-09
6.45638634e-07
-9.90716802e-09
6.47170193e-07
-9.82354616e-09
6.48666518e-07
-9.68154268e-09
6.50118598e-07
-9.48552538e-09
6.51518557e-07
-9.24063598e-09
6.52859752e-07
-8.95257591e-09
6.54136808e-07
-8.62741798e-09
6.55345624e-07
-8.27140913e-09
6.56483317e-07
-7.89077683e-09
6.5754816e-07
-7.49158467e-09
6.58539475e-07
-7.07959963e-09
6.59457521e-07
-6.66017738e-09
6.6030337e-07
-6.23820011e-09
6.61078778e-07
-5.81802036e-09
6.61786066e-07
-5.40344241e-09
6.62427996e-07
-4.99770783e-09
6.63007666e-07
-4.6035169e-09
6.6352841e-07
-4.22305234e-09
6.63993713e-07
-3.85800744e-09
6.64407132e-07
-3.50963549e-09
6.64772244e-07
-3.17879521e-09
6.65092594e-07
-2.86599358e-09
6.65371655e-07
-2.57143827e-09
6.65612793e-07
-2.29508256e-09
6.65819245e-07
-2.03666701e-09
6.65994101e-07
-1.79576517e-09
6.66140306e-07
-1.57182281e-09
6.66260637e-07
-1.364186e-09
6.663577e-07
-1.17213985e-09
6.66433942e-07
-9.94943506e-10
6.66491667e-07
-8.3186067e-10
6.66533072e-07
-6.82183774e-10
6.66560239e-07
-5.45224637e-10
6.6657506e-07
-4.20288038e-10
6.66579106e-07
-3.06661741e-10
6.66573567e-07
-2.03608122e-10
6.66559319e-07
-1.10381233e-10
6.66537013e-07
-2.62635786e-11
6.66507686e-07
4.97407955e-11
6.6647214e-07
1.17696758e-10
6.66431469e-07
1.78390547e-10
6.66386295e-07
2.32337689e-10
6.66337169e-07
2.80043706e-10
6.66284634e-07
3.22024107e-10
6.66229191e-07
3.58762752e-10
6.66171304e-07
3.90725831e-10
6.66111401e-07
4.18354646e-10
6.66049875e-07
4.42056558e-10
6.65987087e-07
4.62205171e-10
6.65923357e-07
4.79141156e-10
6.65858973e-07
4.93174265e-10
6.6579419e-07
5.04584885e-10
6.65729226e-07
5.13627095e-10
6.65664276e-07
5.20530329e-10
6.65599502e-07
5.2550325e-10
6.65535047e-07
5.28734783e-10
6.65471034e-07
5.30397193e-10
6.65407567e-07
5.30647316e-10
6.65344739e-07
5.29628571e-10
6.65282627e-07
5.2747125e-10
6.652213e-07
5.24294336e-10
6.65160819e-07
5.20206322e-10
6.65101234e-07
5.15305104e-10
6.6504259e-07
5.09679426e-10
6.64984925e-07
5.0340945e-10
6.64928271e-07
4.96566526e-10
6.64872653e-07
4.89214563e-10
6.64818092e-07
4.81410582e-10
6.64764604e-07
4.7320451e-10
6.647122e-07
4.64640523e-10
6.6466089e-07
4.55756891e-10
6.64610679e-07
4.46586631e-10
6.64561572e-07
4.3715657e-10
6.6451357e-07
4.27488722e-10
6.64466675e-07
4.17596914e-10
6.64420886e-07
4.07499116e-10
6.64376208e-07
3.97158178e-10
6.64332622e-07
3.86725568e-10
6.6429024e-07
3.75496367e-10
6.64248901e-07
3.66143155e-10
3.47103306e-10
6.66690967e-07
-1.47021212e-10
6.66784006e-07
-5.39249754e-10
6.66962366e-07
-1.01356585e-09
6.67236282e-07
-1.52610617e-09
6.67602217e-07
-1.99696959e-09
6.68038918e-07
-2.32844416e-09
6.68509952e-07
-2.44204852e-09
6.68971236e-07
-2.3049847e-09
6.69379647e-07
-1.93271979e-09
6.69700633e-07
-1.37768937e-09
6.69912996e-07
-7.13950652e-10
6.70008997e-07
-2.19282118e-11
6.69998536e-07
6.20470453e-10
6.69896526e-07
1.15981492e-09
6.69725699e-07
1.55734338e-09
6.69511464e-07
1.79668315e-09
6.69279537e-07
1.87830471e-09
6.69054058e-07
1.81495579e-09
6.68856362e-07
1.62731112e-09
6.68703754e-07
1.3427707e-09
6.68607744e-07
9.98061692e-10
6.68571546e-07
6.42973486e-10
6.68587876e-07
3.4017491e-10
6.68638583e-07
1.57529809e-10
6.68695847e-07
1.54879227e-10
6.68724183e-07
3.69694158e-10
6.68685444e-07
8.05566743e-10
6.68545084e-07
1.43018638e-09
6.68278286e-07
2.18225523e-09
6.67873625e-07
2.98506673e-09
6.67333362e-07
3.76188629e-09
6.66671377e-07
4.44810444e-09
6.65909837e-07
4.99818452e-09
6.65075541e-07
5.38743709e-09
6.64196657e-07
5.61005735e-09
6.63300175e-07
5.6755658e-09
6.62409964e-07
5.60560714e-09
6.61545102e-07
5.43215608e-09
6.60718204e-07
5.19692089e-09
6.5993377e-07
4.95060791e-09
6.59186861e-07
4.75024461e-09
6.58462683e-07
4.65323379e-09
6.57737662e-07
4.708166e-09
6.5698238e-07
4.94418662e-09
6.56166246e-07
5.36212176e-09
6.55263118e-07
5.93087736e-09
6.54256528e-07
6.59145093e-09
6.53143042e-07
7.2685112e-09
6.51932704e-07
7.88677052e-09
6.50646415e-07
8.38740788e-09
6.49311033e-07
8.73952327e-09
6.47953723e-07
8.94322814e-09
6.46597165e-07
9.02395864e-09
6.45256853e-07
9.02069264e-09
6.43940849e-07
8.97266459e-09
6.42651518e-07
8.90913164e-09
6.41388207e-07
8.8449014e-09
6.40149748e-07
8.78169868e-09
6.38936055e-07
8.7132579e-09
6.3774859e-07
8.63119154e-09
6.36589989e-07
8.52925512e-09
6.3546332e-07
8.40502573e-09
6.34371414e-07
8.25937605e-09
6.333165e-07
8.09487704e-09
6.32300146e-07
7.9142321e-09
6.31323402e-07
7.71937774e-09
6.30386983e-07
7.51130406e-09
6.29491424e-07
7.29029277e-09
6.28637161e-07
7.0562743e-09
6.27824578e-07
6.8090565e-09
6.27054035e-07
6.54838384e-09
6.26325902e-07
6.27391822e-09
6.25640606e-07
5.985186e-09
6.24998681e-07
5.68154215e-09
6.24400815e-07
5.36218845e-09
6.2384789e-07
5.02620183e-09
6.23341001e-07
4.67256029e-09
6.2288146e-07
4.30018268e-09
6.2247078e-07
3.90795768e-09
6.22110649e-07
3.49477713e-09
6.21802942e-07
3.05960316e-09
6.21549744e-07
2.60153395e-09
6.21353327e-07
2.11987201e-09
6.2121572e-07
1.61415831e-09
6.21138546e-07
1.08426848e-09
6.21125942e-07
5.30690325e-10
6.21190208e-07
-4.7620638e-11
6.213245e-07
-6.47534139e-10
6.21538589e-07
-1.26788161e-09
6.21836176e-07
-1.90692527e-09
6.22221681e-07
-2.56358042e-09
6.22698945e-07
-3.23573064e-09
6.23271255e-07
-3.92029943e-09
6.23941253e-07
-4.61338867e-09
6.24710812e-07
-5.31030423e-09
6.25580916e-07
-6.0054767e-09
6.26551487e-07
-6.69250483e-09
6.27621205e-07
-7.36427204e-09
6.28787358e-07
-8.01307433e-09
6.30045724e-07
-8.63081203e-09
6.31390501e-07
-9.20922394e-09
6.32814294e-07
-9.74014234e-09
6.34308172e-07
-1.02157996e-08
6.3586179e-07
-1.06291187e-08
6.37463582e-07
-1.09740133e-08
6.39101017e-07
-1.12456246e-08
6.40760909e-07
-1.14405568e-08
6.42429756e-07
-1.155699e-08
6.44094098e-07
-1.15947673e-08
6.45740874e-07
-1.1555369e-08
6.47357747e-07
-1.14418336e-08
6.48933392e-07
-1.12585802e-08
6.50457717e-07
-1.10112149e-08
6.51922035e-07
-1.07062829e-08
6.5331916e-07
-1.03509858e-08
6.54643438e-07
-9.95293194e-09
6.55890728e-07
-9.51988169e-09
6.57058331e-07
-9.05950404e-09
6.5814488e-07
-8.57919666e-09
6.59150206e-07
-8.08592617e-09
6.60075189e-07
-7.58609547e-09
6.60921594e-07
-7.08547601e-09
6.61691919e-07
-6.58915076e-09
6.62389238e-07
-6.10150263e-09
6.63017062e-07
-5.62620938e-09
6.63579209e-07
-5.16628039e-09
6.64079695e-07
-4.72409627e-09
6.6452264e-07
-4.3014526e-09
6.64912183e-07
-3.89962555e-09
6.65252423e-07
-3.51943041e-09
6.65547359e-07
-3.16127698e-09
6.65800856e-07
-2.82523703e-09
6.66016616e-07
-2.51110138e-09
6.66198157e-07
-2.21842834e-09
6.66348805e-07
-1.94659614e-09
6.66471681e-07
-1.69484793e-09
6.66569709e-07
-1.46233282e-09
6.66645625e-07
-1.24814456e-09
6.66701957e-07
-1.05133825e-09
6.66740997e-07
-8.70938965e-10
6.66764734e-07
-7.05937803e-10
6.66774836e-07
-5.55326154e-10
6.66772746e-07
-4.18188682e-10
6.66759795e-07
-2.93697896e-10
6.66737264e-07
-1.81065749e-10
6.66706368e-07
-7.94780903e-11
6.66668551e-07
1.15799604e-11
6.66625315e-07
9.30053046e-11
6.66577212e-07
1.65846772e-10
6.66524946e-07
2.30719636e-10
6.66469131e-07
2.88226369e-10
6.66410321e-07
3.38935624e-10
6.6634901e-07
3.83425459e-10
6.66285629e-07
4.22239768e-10
6.66220568e-07
4.55887216e-10
6.66154182e-07
4.8484471e-10
6.66086791e-07
5.09553677e-10
6.66018684e-07
5.30419271e-10
6.65950122e-07
5.47811214e-10
6.65881338e-07
5.62066456e-10
6.65812539e-07
5.73490848e-10
6.65743909e-07
5.82362372e-10
6.65675611e-07
5.88932746e-10
6.65607785e-07
5.93431481e-10
6.65540554e-07
5.96066674e-10
6.65474022e-07
5.9702813e-10
6.65408278e-07
5.96488469e-10
6.65343396e-07
5.94605203e-10
6.6527944e-07
5.91520961e-10
6.65216459e-07
5.87365503e-10
6.65154498e-07
5.82256667e-10
6.6509359e-07
5.76300313e-10
6.65033761e-07
5.69592029e-10
6.64975035e-07
5.62217848e-10
6.64917427e-07
5.54254086e-10
6.6486095e-07
5.45768923e-10
6.64805613e-07
5.36823054e-10
6.6475142e-07
5.27469466e-10
6.64698376e-07
5.17754936e-10
6.6464648e-07
5.077199e-10
6.64595732e-07
4.9739932e-10
6.64546129e-07
4.86821795e-10
6.64497666e-07
4.76011311e-10
6.64450337e-07
4.64983399e-10
6.6440413e-07
4.53760655e-10
6.64359039e-07
4.4230443e-10
6.64315e-07
4.30806422e-10
6.6427206e-07
4.18505298e-10
6.64229536e-07
4.08595699e-10
3.88512811e-10
6.66692454e-07
-1.72737481e-10
6.66788649e-07
-6.35485943e-10
6.6697166e-07
-1.19665537e-09
6.6725085e-07
-1.80527344e-09
6.6762193e-07
-2.36794429e-09
6.68063458e-07
-2.76985976e-09
6.68539606e-07
-2.91811704e-09
6.69007355e-07
-2.7726838e-09
6.69424669e-07
-2.35000484e-09
6.69757306e-07
-1.71032266e-09
6.69983861e-07
-9.40519759e-10
6.70098405e-07
-1.36595791e-10
6.70099451e-07
6.19229649e-10
6.70007473e-07
1.25148747e-09
6.69845091e-07
1.7193582e-09
6.69637977e-07
2.00341531e-09
6.69411837e-07
2.10404905e-09
6.69190948e-07
2.03544384e-09
6.68996925e-07
1.82093666e-09
6.68847588e-07
1.49171908e-09
6.68755447e-07
1.08982922e-09
6.68725536e-07
6.72542508e-10
6.68752598e-07
3.12833428e-10
6.68818331e-07
9.16059181e-11
6.68891367e-07
8.16949847e-11
6.68933621e-07
3.27288202e-10
6.68906888e-07
8.32090296e-10
6.68777865e-07
1.55894579e-09
6.68523111e-07
2.43671484e-09
6.68131227e-07
3.37663547e-09
6.67603527e-07
4.28925659e-09
6.66952694e-07
5.09859466e-09
6.66199861e-07
5.75066571e-09
6.65371126e-07
6.21581219e-09
6.64494327e-07
6.48649173e-09
6.63596425e-07
6.57310172e-09
6.62701492e-07
6.50017191e-09
6.61829051e-07
6.304229e-09
6.60992414e-07
6.03318965e-09
6.60196925e-07
5.74573235e-09
6.59438396e-07
5.50841443e-09
6.5870246e-07
5.38881606e-09
6.5796559e-07
5.44468254e-09
6.57198162e-07
5.7112542e-09
6.56369275e-07
6.19063367e-09
6.55452413e-07
6.84734371e-09
6.54430628e-07
7.61281831e-09
6.53299894e-07
8.39880722e-09
6.52069684e-07
9.11652578e-09
6.50760558e-07
9.69606506e-09
6.49399445e-07
1.01001564e-08
6.48014009e-07
1.03281757e-08
6.46627742e-07
1.0409734e-08
6.45257047e-07
1.03908917e-08
6.43910816e-07
1.03183998e-08
6.42592039e-07
1.02274116e-08
6.41300462e-07
1.013598e-08
6.40035137e-07
1.00465266e-08
6.38796071e-07
9.95182715e-09
6.37584759e-07
9.84200694e-09
6.36403838e-07
9.70968144e-09
6.35256348e-07
9.55202315e-09
6.34145057e-07
9.37017703e-09
6.33072084e-07
9.16736348e-09
6.3203884e-07
8.94699325e-09
6.31046172e-07
8.71156743e-09
6.30094562e-07
8.46244062e-09
6.29184294e-07
8.20009392e-09
6.2831555e-07
7.92455789e-09
6.27488466e-07
7.63568786e-09
6.26703168e-07
7.33323846e-09
6.2595981e-07
7.01684217e-09
6.25258627e-07
6.68594782e-09
6.2459998e-07
6.33978077e-09
6.23984407e-07
5.97736727e-09
6.2341266e-07
5.59757284e-09
6.22885722e-07
5.1991394e-09
6.22404829e-07
4.78073754e-09
6.21971465e-07
4.34100448e-09
6.21587369e-07
3.87857868e-09
6.21254546e-07
3.39215715e-09
6.20975289e-07
2.88054791e-09
6.20752225e-07
2.34272026e-09
6.20588338e-07
1.77785816e-09
6.20487039e-07
1.18541681e-09
6.2045229e-07
5.65340484e-10
6.20486799e-07
-8.2041979e-11
6.20595452e-07
-7.56141396e-10
6.20783879e-07
-1.45624436e-09
6.21057883e-07
-2.18084048e-09
6.21422569e-07
-2.92813936e-09
6.21882615e-07
-3.69560641e-09
6.22442325e-07
-4.47979759e-09
6.23105478e-07
-5.27629029e-09
6.23875095e-07
-6.07962797e-09
6.24753221e-07
-6.8832704e-09
6.2574072e-07
-7.67963106e-09
6.26837037e-07
-8.46018019e-09
6.28039997e-07
-9.21558814e-09
6.2934562e-07
-9.93595621e-09
6.30748013e-07
-1.06111052e-08
6.32239312e-07
-1.12309006e-08
6.3380973e-07
-1.17856492e-08
6.35447689e-07
-1.22664843e-08
6.37140055e-07
-1.26657632e-08
6.38872457e-07
-1.29773905e-08
6.40629683e-07
-1.31971294e-08
6.4239612e-07
-1.33227588e-08
6.44156216e-07
-1.33541835e-08
6.45894932e-07
-1.32933963e-08
6.47598157e-07
-1.31443634e-08
6.49253057e-07
-1.29127819e-08
6.5084835e-07
-1.26058112e-08
6.52374498e-07
-1.22317389e-08
6.53823805e-07
-1.17996073e-08
6.55190431e-07
-1.13188844e-08
6.56470346e-07
-1.07991373e-08
6.57661211e-07
-1.02497274e-08
6.58762226e-07
-9.67958993e-09
6.59773943e-07
-9.0970447e-09
6.60698067e-07
-8.5096469e-09
6.61537254e-07
-7.92411771e-09
6.62294912e-07
-7.34629216e-09
6.62975017e-07
-6.78112133e-09
6.63581948e-07
-6.23268359e-09
6.64120335e-07
-5.70424269e-09
6.64594941e-07
-5.19830798e-09
6.65010549e-07
-4.71669814e-09
6.65371885e-07
-4.26062806e-09
6.65683544e-07
-3.83078685e-09
6.65949951e-07
-3.4274097e-09
6.6617532e-07
-3.05035892e-09
6.66363629e-07
-2.69919097e-09
6.6651861e-07
-2.37321457e-09
6.66643737e-07
-2.07155218e-09
6.66742223e-07
-1.79318757e-09
6.66817019e-07
-1.53700441e-09
6.66870804e-07
-1.30182711e-09
6.66906002e-07
-1.08645532e-09
6.66924822e-07
-8.8969975e-10
6.66929342e-07
-7.10422685e-10
6.66921569e-07
-5.475366e-10
6.66903344e-07
-3.99962222e-10
6.66876284e-07
-2.66644227e-10
6.668417e-07
-1.46491258e-10
6.66800857e-07
-3.86420677e-11
6.66753892e-07
5.85071616e-11
6.66701678e-07
1.45183348e-10
6.66645088e-07
2.22386811e-10
6.66584904e-07
2.90844993e-10
6.66521759e-07
3.51304847e-10
6.66456176e-07
4.04446533e-10
6.66388622e-07
4.50902683e-10
6.66319513e-07
4.91267588e-10
6.66249221e-07
5.26095304e-10
6.66178079e-07
5.55900518e-10
6.66106385e-07
5.8115933e-10
6.66034407e-07
6.0230984e-10
6.65962377e-07
6.19752899e-10
6.658905e-07
6.33854954e-10
6.65818955e-07
6.44949399e-10
6.65747892e-07
6.53339475e-10
6.65677441e-07
6.5929943e-10
6.65607711e-07
6.63078624e-10
6.65538794e-07
6.64902186e-10
6.65470767e-07
6.64974488e-10
6.65403696e-07
6.63480492e-10
6.65337636e-07
6.6058825e-10
6.65272631e-07
6.56449343e-10
6.65208721e-07
6.51201302e-10
6.65145936e-07
6.44968806e-10
6.65084302e-07
6.37863741e-10
6.65023837e-07
6.29987173e-10
6.64964557e-07
6.21430189e-10
6.64906472e-07
6.12273714e-10
6.64849587e-07
6.02590217e-10
6.64793904e-07
5.92444349e-10
6.64739421e-07
5.818926e-10
6.64686134e-07
5.70984858e-10
6.64634034e-07
5.59764221e-10
6.64583112e-07
5.48267981e-10
6.64533356e-07
5.36526739e-10
6.64484751e-07
5.24566482e-10
6.64437283e-07
5.12404625e-10
6.6439093e-07
5.00067266e-10
6.64345678e-07
4.87514601e-10
6.64301481e-07
4.74953006e-10
6.64258424e-07
4.61542286e-10
6.64216286e-07
4.50583895e-10
4.28386054e-10
6.66693464e-07
-1.99354388e-10
6.66792263e-07
-7.34330377e-10
6.669803e-07
-1.38480243e-09
6.67267984e-07
-2.09300489e-09
6.67651759e-07
-2.75171368e-09
6.68109968e-07
-3.22806647e-09
6.68605443e-07
-3.41360796e-09
6.69093299e-07
-3.26054802e-09
6.69529447e-07
-2.78613188e-09
6.69877783e-07
-2.05860061e-09
6.70114542e-07
-1.17720355e-09
6.70229582e-07
-2.51548812e-10
6.70236835e-07
6.12155482e-10
6.70147675e-07
1.34089344e-09
6.69985287e-07
1.8820341e-09
6.69776361e-07
2.21262777e-09
6.69548669e-07
2.332031e-09
6.69328568e-07
2.25584061e-09