/*--------------------------------*- C++ -*----------------------------------*\
| =========                 |                                                 |
| \\      /  F ield         | OpenFOAM: The Open Source CFD Toolbox           |
|  \\    /   O peration     | Version:  v2012                                 |
|   \\  /    A nd           | Website:  www.openfoam.com                      |
|    \\/     M anipulation  |                                                 |
\*---------------------------------------------------------------------------*/
FoamFile
{
    version     2.0;
    format      ascii;
    class       volScalarField;
    location    "2.89";
    object      rAU;
}
// * * * * * * * * * * * * * * * * * * * * * * * * * * * * * * * * * * * * * //

dimensions      [0 0 1 0 0 0 0];


internalField   nonuniform List<scalar> 
28416
(
0.000821757125
0.000821773374
0.000821767595
0.000821760206
0.000821751898
0.000821743673
0.000821736546
0.000821731307
0.0008217284
0.000821727965
0.000821728814
0.00082171807
0.000821707554
0.000821700054
0.000821695932
0.000821695164
0.000821697414
0.000821702133
0.00082170867
0.000821716294
0.000821724209
0.000821731559
0.000821737405
0.0008217408
0.000821741287
0.00082173892
0.000821734291
0.000821728407
0.000821722534
0.00082171796
0.000821715791
0.000821716808
0.000821721416
0.000821729662
0.00082174129
0.000821755796
0.000821772493
0.000821790552
0.000821809058
0.000821827074
0.000821843727
0.000821858327
0.000821870484
0.000821880199
0.000821887912
0.000821894448
0.000821900896
0.000821908395
0.000821917909
0.000821930029
0.000821944877
0.000821962137
0.000821981187
0.000822001302
0.000822021832
0.000822042328
0.000822062567
0.00082208251
0.000822102212
0.000822121746
0.000822141148
0.000822160405
0.000822179469
0.000822198282
0.000822216789
0.000822234955
0.000822252768
0.000822270216
0.000822287298
0.000822304021
0.000822320381
0.000822336381
0.000822352029
0.000822367319
0.000822382249
0.000822396816
0.000822410999
0.000822424761
0.000822438098
0.000822451051
0.000822463616
0.000822475765
0.000822487482
0.000822498802
0.000822509758
0.000822520372
0.000822530669
0.000822536263
0.000822526544
0.000822515206
0.000822502249
0.000822487706
0.000822471608
0.000822453986
0.000822434895
0.000822414396
0.000822392573
0.000822369532
0.000822345385
0.000822320269
0.000822294342
0.000822267765
0.000822240716
0.00082221338
0.00082218595
0.000822158607
0.000822131544
0.00082210493
0.000822078934
0.000822053704
0.000822029383
0.00082200608
0.000821983891
0.0008219629
0.000821943154
0.00082192469
0.000821907532
0.000821891672
0.000821877097
0.000821863783
0.000821851687
0.000821840763
0.000821830954
0.000821822208
0.000821814455
0.000821807631
0.000821801678
0.000821796526
0.000821792112
0.000821788381
0.000821785269
0.000821782722
0.000821780693
0.000821779125
0.000821777973
0.0008217772
0.000821776756
0.000821776603
0.000821776709
0.000821777033
0.00082177754
0.000821778197
0.000821778977
0.000821779847
0.000821780794
0.0008217818
0.000821782866
0.00082178401
0.00082178313
0.000821781894
0.000821780945
0.000821780266
0.000821779822
0.000821779589
0.000821779548
0.00082177967
0.000821779935
0.000821780332
0.000821780837
0.00082178144
0.000821782127
0.000821782891
0.000821783716
0.000821784601
0.000821785533
0.000821786507
0.000821787514
0.000821788555
0.000821789618
0.000821790699
0.000821791799
0.000821792909
0.000821794024
0.000821795148
0.000821796272
0.000821797393
0.000821798516
0.000821799632
0.000821800742
0.000821801842
0.000821802937
0.00082180402
0.00082180509
0.000821806151
0.000821807198
0.00082180823
0.000821809249
0.000821810263
0.000821811205
0.000821832518
0.000821741565
0.000821756866
0.000821749915
0.000821741124
0.000821731297
0.000821721654
0.000821713448
0.000821707643
0.000821704751
0.000821704846
0.000821707599
0.000821705019
0.000821697736
0.000821693286
0.000821691662
0.000821692632
0.000821695774
0.000821700553
0.000821706383
0.000821712646
0.000821718704
0.000821723901
0.000821727577
0.000821729241
0.000821728693
0.000821726124
0.000821722161
0.00082171777
0.000821714078
0.000821712151
0.000821712825
0.000821716598
0.000821723613
0.000821733705
0.000821746474
0.000821761362
0.000821777723
0.000821794857
0.000821812052
0.000821828622
0.000821843969
0.000821857667
0.000821869549
0.000821879781
0.000821888878
0.000821897645
0.000821907039
0.000821917977
0.000821931139
0.000821946835
0.000821964957
0.000821985053
0.00082200647
0.000822028535
0.0008220507
0.000822072623
0.000822094167
0.000822115339
0.00082213621
0.000822156841
0.000822177253
0.000822197414
0.000822217265
0.00082223674
0.000822255783
0.000822274352
0.00082229243
0.000822309998
0.000822327047
0.000822343576
0.000822359573
0.000822375033
0.000822389958
0.000822404337
0.000822418162
0.000822431432
0.000822444128
0.000822456234
0.000822467741
0.000822478636
0.000822488919
0.000822498586
0.000822507603
0.000822515966
0.000822523648
0.000822530562
0.000822536523
0.000822531718
0.000822520531
0.000822507895
0.000822493661
0.00082247781
0.000822460331
0.00082244124
0.000822420584
0.000822398422
0.000822374841
0.000822349954
0.000822323886
0.00082229679
0.000822268843
0.000822240229
0.000822211153
0.000822181827
0.000822152473
0.000822123302
0.000822094536
0.000822066371
0.000822039001
0.000822012592
0.000821987303
0.000821963252
0.00082194054
0.000821919249
0.000821899423
0.000821881086
0.00082186425
0.000821848891
0.000821834976
0.000821822463
0.000821811287
0.000821801381
0.000821792668
0.000821785075
0.000821778516
0.000821772909
0.000821768181
0.000821764247
0.000821761033
0.000821758474
0.000821756497
0.00082175504
0.00082175405
0.000821753468
0.000821753245
0.00082175334
0.000821753706
0.000821754304
0.000821755106
0.000821756072
0.000821757177
0.000821758393
0.000821759704
0.000821761081
0.000821762513
0.000821763976
0.00082176546
0.000821766588
0.000821766098
0.000821765763
0.000821765616
0.000821765644
0.000821765823
0.000821766139
0.000821766581
0.00082176713
0.000821767772
0.000821768501
0.000821769298
0.000821770157
0.000821771066
0.000821772023
0.000821773013
0.000821774037
0.000821775084
0.000821776151
0.000821777231
0.000821778326
0.000821779426
0.000821780528
0.000821781636
0.000821782741
0.00082178384
0.000821784937
0.000821786024
0.000821787101
0.000821788172
0.000821789229
0.000821790273
0.000821791303
0.000821792322
0.000821793324
0.00082179431
0.000821795283
0.000821796239
0.000821797177
0.000821798102
0.000821799017
0.000821799886
0.00082182104
0.000821741049
0.000821754999
0.000821746465
0.000821736007
0.000821724678
0.000821713992
0.000821705414
0.000821699973
0.00082169811
0.000821699735
0.000821704325
0.000821706607
0.000821697318
0.000821691029
0.000821687941
0.000821687899
0.000821690481
0.000821695117
0.000821701178
0.000821707986
0.000821714819
0.000821720894
0.000821725388
0.000821727592
0.000821727111
0.000821724014
0.000821718901
0.000821712795
0.000821706961
0.000821702659
0.000821700948
0.000821702529
0.000821707705
0.000821716411
0.000821728285
0.000821742764
0.000821759155
0.000821776684
0.000821794536
0.000821811887
0.000821827977
0.000821842208
0.000821854256
0.000821864183
0.000821872477
0.00082188001
0.000821887891
0.000821897251
0.000821909
0.000821923636
0.000821941166
0.000821961146
0.000821982852
0.000822005485
0.000822028362
0.000822051037
0.000822073315
0.00082209519
0.00082211675
0.000822138082
0.000822159227
0.000822180163
0.000822200827
0.000822221146
0.000822241052
0.000822260498
0.000822279462
0.000822297924
0.000822315875
0.000822333316
0.000822350235
0.00082236663
0.000822382503
0.000822397848
0.000822412661
0.000822426944
0.000822440686
0.000822453878
0.000822466518
0.000822478589
0.000822490079
0.000822500972
0.000822511219
0.000822520782
0.00082252963
0.000822537732
0.000822545132
0.000822536188
0.00082252396
0.000822510133
0.000822494623
0.000822477414
0.00082245851
0.000822437926
0.000822415707
0.000822391913
0.000822366636
0.000822339999
0.000822312138
0.000822283224
0.000822253454
0.000822223035
0.000822192199
0.000822161186
0.000822130247
0.000822099623
0.00082206956
0.000822040281
0.000822011995
0.000821984886
0.00082195912
0.000821934818
0.000821912078
0.000821890975
0.000821871538
0.000821853779
0.000821837686
0.000821823216
0.000821810313
0.000821798912
0.000821788925
0.000821780263
0.000821772831
0.000821766535
0.000821761273
0.00082175695
0.000821753479
0.000821750765
0.000821748727
0.000821747292
0.000821746385
0.000821745938
0.000821745898
0.000821746206
0.000821746811
0.000821747675
0.000821748753
0.000821750008
0.000821751414
0.000821752935
0.000821754545
0.000821756216
0.000821757929
0.000821759656
0.00082176139
0.000821763118
0.000821764839
0.000821765295
0.000821764733
0.000821764385
0.000821764232
0.000821764262
0.000821764448
0.000821764776
0.000821765233
0.000821765799
0.00082176646
0.000821767209
0.000821768029
0.000821768911
0.000821769843
0.000821770824
0.000821771838
0.000821772887
0.000821773959
0.00082177505
0.000821776154
0.000821777274
0.000821778398
0.000821779525
0.000821780657
0.000821781785
0.000821782908
0.000821784028
0.000821785139
0.000821786239
0.000821787332
0.000821788411
0.000821789478
0.000821790529
0.00082179157
0.000821792594
0.000821793601
0.000821794596
0.000821795574
0.000821796534
0.000821797481
0.000821798419
0.000821799302
0.000821820468
0.000821740613
0.000821753431
0.00082174347
0.000821731356
0.000821718321
0.000821706148
0.000821696569
0.000821690787
0.000821689291
0.000821691914
0.00082169795
0.000821704929
0.000821694131
0.000821686535
0.000821682621
0.000821682233
0.000821684903
0.000821689983
0.000821696745
0.000821704399
0.000821712101
0.000821718929
0.000821723907
0.000821726168
0.000821725165
0.000821720865
0.000821713885
0.000821705399
0.000821696922
0.000821689989
0.000821685898
0.000821685532
0.000821689291
0.000821697133
0.000821708662
0.000821723237
0.000821740061
0.000821758239
0.000821776821
0.000821794841
0.000821811389
0.000821825722
0.000821837408
0.000821846458
0.000821853401
0.000821859244
0.00082186531
0.000821872977
0.000821883382
0.000821897181
0.000821914436
0.000821934664
0.000821957018
0.000821980547
0.000822004424
0.000822028102
0.000822051337
0.000822074121
0.000822096566
0.000822118793
0.000822140864
0.000822162768
0.000822184437
0.00082220579
0.000822226749
0.000822247263
0.000822267306
0.000822286859
0.000822305915
0.000822324477
0.000822342538
0.000822360096
0.000822377157
0.00082239372
0.000822409784
0.000822425356
0.00082244043
0.000822455001
0.000822469067
0.000822482614
0.000822495625
0.000822508086
0.000822519963
0.000822531231
0.000822541861
0.000822551778
0.000822559801
0.000822548311
0.00082253506
0.000822520083
0.000822503332
0.000822484771
0.000822464385
0.000822442182
0.000822418206
0.000822392517
0.000822365209
0.000822336417
0.000822306292
0.000822275025
0.000822242841
0.000822209979
0.000822176707
0.000822143304
0.000822110064
0.000822077266
0.000822045197
0.000822014113
0.000821984254
0.000821955828
0.000821929015
0.000821903947
0.000821880724
0.000821859411
0.00082184003
0.000821822571
0.000821807003
0.000821793258
0.000821781253
0.000821770896
0.000821762072
0.000821754666
0.000821748555
0.000821743627
0.000821739756
0.000821736829
0.000821734742
0.00082173339
0.000821732676
0.000821732522
0.000821732841
0.000821733563
0.00082173463
0.000821735979
0.000821737559
0.000821739332
0.000821741252
0.000821743283
0.000821745401
0.000821747572
0.000821749776
0.000821751994
0.000821754218
0.000821756431
0.00082175863
0.000821760801
0.00082176271
0.000821762482
0.000821762055
0.000821761837
0.000821761808
0.000821761954
0.000821762251
0.000821762681
0.000821763234
0.00082176389
0.000821764636
0.000821765466
0.000821766362
0.000821767317
0.000821768319
0.000821769368
0.000821770446
0.000821771556
0.000821772687
0.000821773834
0.000821774992
0.000821776163
0.000821777336
0.000821778508
0.000821779684
0.000821780854
0.000821782016
0.000821783174
0.000821784321
0.000821785456
0.000821786582
0.000821787694
0.000821788792
0.000821789873
0.000821790944
0.000821791997
0.000821793031
0.000821794054
0.000821795059
0.000821796046
0.00082179702
0.000821797986
0.0008217989
0.000821820126
0.000821740149
0.000821751699
0.000821740159
0.000821726281
0.000821711551
0.000821698063
0.000821687804
0.000821682091
0.000821681373
0.000821685328
0.000821693019
0.000821703148
0.000821692353
0.00082168296
0.000821677674
0.000821676386
0.000821678628
0.000821683726
0.000821690899
0.000821699282
0.000821707919
0.000821715724
0.000821721507
0.000821724174
0.000821723014
0.000821717923
0.000821709518
0.000821699037
0.000821688144
0.000821678588
0.000821671905
0.000821669194
0.000821671023
0.000821677448
0.000821688107
0.000821702344
0.000821719308
0.000821738016
0.000821757397
0.00082177633
0.000821793725
0.000821808654
0.000821820524
0.000821829244
0.000821835327
0.000821839865
0.000821844358
0.000821850422
0.000821859438
0.000821872261
0.000821889064
0.000821909363
0.000821932227
0.000821956562
0.000821981396
0.000822006069
0.000822030273
0.000822053985
0.000822077332
0.000822100462
0.000822123456
0.000822146309
0.000822168951
0.00082219129
0.000822213241
0.000822234743
0.000822255771
0.000822276305
0.000822296342
0.000822315887
0.000822334938
0.000822353497
0.000822371576
0.000822389177
0.000822406306
0.000822422977
0.000822439188
0.00082245494
0.000822470238
0.000822485069
0.00082249942
0.000822513277
0.000822526608
0.000822539374
0.000822551525
0.000822562997
0.000822571167
0.000822558724
0.000822544522
0.000822528492
0.000822510562
0.000822490694
0.000822468859
0.000822445062
0.000822419338
0.000822391744
0.000822362378
0.00082233138
0.00082229892
0.000822265208
0.000822230501
0.000822195074
0.000822159236
0.000822123312
0.000822087646
0.000822052565
0.000822018404
0.00082198546
0.00082195401
0.000821924289
0.000821896494
0.000821870768
0.000821847206
0.000821825868
0.000821806755
0.000821789835
0.000821775048
0.000821762294
0.000821751457
0.000821742412
0.00082173501
0.000821729107
0.00082172455
0.0008217212
0.000821718911
0.000821717548
0.000821716993
0.000821717124
0.000821717838
0.000821719045
0.000821720654
0.000821722592
0.000821724799
0.00082172721
0.000821729776
0.00082173246
0.00082173522
0.000821738025
0.000821740854
0.00082174368
0.000821746487
0.000821749256
0.000821751975
0.000821754623
0.0008217572
0.000821759691
0.000821760833
0.000821760232
0.000821759876
0.000821759735
0.000821759782
0.000821760004
0.000821760375
0.000821760878
0.000821761502
0.000821762227
0.000821763038
0.000821763931
0.000821764887
0.000821765898
0.000821766954
0.000821768053
0.00082176918
0.000821770337
0.000821771511
0.0008217727
0.000821773898
0.000821775106
0.000821776316
0.000821777524
0.000821778734
0.000821779936
0.00082178113
0.000821782319
0.000821783495
0.000821784658
0.000821785812
0.000821786949
0.000821788072
0.000821789178
0.000821790272
0.000821791348
0.000821792405
0.000821793451
0.000821794477
0.000821795487
0.000821796481
0.00082179747
0.000821798394
0.000821819633
0.000821739668
0.000821749933
0.000821736781
0.000821721071
0.000821704514
0.000821689509
0.000821678316
0.000821672409
0.000821672255
0.000821677425
0.000821686799
0.00082169888
0.000821690051
0.000821678928
0.000821672368
0.000821670305
0.000821672253
0.000821677475
0.000821685108
0.000821694189
0.000821703649
0.000821712272
0.000821718717
0.000821721717
0.000821720139
0.00082171432
0.000821704232
0.000821691467
0.000821677913
0.000821665584
0.00082165627
0.000821651271
0.000821651292
0.000821656455
0.000821666406
0.000821680444
0.000821697639
0.000821716904
0.00082173704
0.000821756784
0.000821774882
0.000821790243
0.000821802127
0.000821810353
0.000821815428
0.000821818544
0.00082182139
0.000821825827
0.000821833484
0.000821845409
0.000821861873
0.00082188239
0.000821905929
0.000821931251
0.000821957232
0.000821983091
0.000822008451
0.000822033271
0.000822057692
0.000822081884
0.00082210595
0.000822129893
0.000822153639
0.000822177089
0.000822200145
0.000822222744
0.000822244858
0.000822266469
0.000822287579
0.000822308199
0.000822328331
0.000822347985
0.000822367181
0.000822385926
0.000822404236
0.00082242213
0.000822439614
0.000822456695
0.000822473382
0.000822489666
0.000822505537
0.000822520983
0.00082253597
0.000822550465
0.000822564416
0.000822577765
0.000822587284
0.00082257415
0.000822559108
0.000822542083
0.000822523003
0.000822501814
0.000822478476
0.000822452975
0.000822425339
0.000822395617
0.000822363908
0.00082233036
0.000822295157
0.00082225854
0.000822220799
0.000822182254
0.00082214327
0.000822104231
0.000822065543
0.000822027598
0.000821990791
0.000821955474
0.00082192197
0.000821890548
0.000821861432
0.000821834771
0.000821810663
0.000821789152
0.000821770217
0.000821753798
0.000821739798
0.00082172808
0.000821718485
0.00082171085
0.000821704985
0.00082170071
0.00082169784
0.000821696206
0.000821695635
0.000821695972
0.000821697079
0.000821698821
0.000821701083
0.000821703766
0.000821706776
0.000821710032
0.000821713474
0.000821717038
0.000821720675
0.00082172435
0.000821728022
0.000821731662
0.000821735253
0.000821738769
0.000821742197
0.000821745526
0.000821748756
0.000821751876
0.000821754895
0.000821757429
0.000821757405
0.000821756991
0.000821756812
0.000821756838
0.000821757044
0.000821757415
0.000821757926
0.00082175856
0.000821759307
0.000821760147
0.000821761066
0.00082176206
0.000821763111
0.000821764213
0.000821765354
0.000821766533
0.000821767736
0.000821768964
0.000821770206
0.000821771459
0.000821772717
0.000821773982
0.000821775245
0.000821776504
0.00082177776
0.000821779007
0.000821780243
0.000821781472
0.000821782686
0.000821783885
0.000821785074
0.000821786245
0.0008217874
0.000821788537
0.00082178966
0.000821790765
0.00082179185
0.000821792922
0.000821793975
0.000821795009
0.000821796028
0.000821797042
0.000821797991
0.00082181928
0.000821739169
0.000821748102
0.000821733274
0.000821715668
0.000821697246
0.000821680732
0.000821668665
0.000821662661
0.000821663172
0.000821669634
0.000821680696
0.000821694565
0.000821687819
0.000821674858
0.000821666899
0.000821663925
0.000821665454
0.000821670721
0.000821678802
0.000821688651
0.000821699076
0.000821708679
0.000821715881
0.000821717317
0.000821714986
0.000821710562
0.000821698875
0.000821683922
0.000821667757
0.000821652622
0.000821640553
0.000821633075
0.00082163106
0.00082163473
0.000821643765
0.000821657448
0.000821674786
0.000821694596
0.000821715547
0.00082173621
0.000821755146
0.000821771077
0.000821783109
0.000821790968
0.000821795156
0.000821796959
0.00082179825
0.000821801129
0.000821807473
0.000821818528
0.000821834678
0.000821855438
0.000821879688
0.000821906044
0.00082193323
0.000821960341
0.00082198693
0.000822012931
0.000822038496
0.000822063817
0.000822089014
0.000822114095
0.000822138982
0.000822163564
0.000822187735
0.000822211424
0.000822234602
0.000822257256
0.000822279392
0.000822301027
0.000822322173
0.000822342846
0.000822363074
0.000822382873
0.000822402269
0.000822421288
0.000822439945
0.000822458254
0.000822476232
0.000822493876
0.000822511182
0.000822528141
0.000822544725
0.000822560902
0.000822576622
0.000822591829
0.000822604096
0.000822590315
0.000822574515
0.000822556596
0.000822536461
0.000822514033
0.000822489245
0.000822462065
0.000822432499
0.000822400587
0.000822366419
0.00082233015
0.000822291978
0.000822252172
0.000822211062
0.000822169024
0.000822126487
0.000822083908
0.000822041774
0.000822000556
0.000821960728
0.000821922711
0.000821886887
0.00082185357
0.00082182301
0.00082179537
0.000821770742
0.000821749153
0.00082173055
0.000821714834
0.000821701862
0.000821691446
0.00082168338
0.000821677446
0.000821673412
0.000821671051
0.000821670142
0.000821670479
0.000821671863
0.000821674114
0.000821677076
0.000821680598
0.000821684554
0.00082168884
0.000821693354
0.000821698015
0.000821702762
0.000821707532
0.000821712279
0.000821716971
0.000821721573
0.000821726063
0.000821730429
0.000821734655
0.000821738732
0.000821742652
0.000821746416
0.000821750011
0.000821753451
0.000821754695
0.000821754195
0.000821753947
0.000821753929
0.000821754108
0.000821754461
0.000821754972
0.000821755616
0.000821756375
0.00082175724
0.000821758191
0.000821759214
0.000821760305
0.000821761448
0.000821762635
0.000821763855
0.000821765109
0.000821766381
0.000821767674
0.000821768976
0.000821770287
0.000821771598
0.000821772914
0.000821774225
0.000821775528
0.000821776828
0.000821778116
0.00082177939
0.000821780655
0.000821781904
0.000821783135
0.000821784354
0.000821785555
0.000821786737
0.0008217879
0.000821789049
0.000821790178
0.000821791287
0.000821792382
0.000821793456
0.000821794512
0.000821795552
0.000821796586
0.000821797548
0.000821818853
0.000821738647
0.000821746194
0.000821729627
0.000821710052
0.000821689683
0.000821671572
0.000821658542
0.000821652361
0.000821653478
0.000821661204
0.000821673975
0.000821689765
0.0008216856
0.000821670742
0.000821661338
0.000821657431
0.000821658536
0.000821663839
0.000821672338
0.000821682884
0.000821694161
0.000821704628
0.000821712556
0.00082171011
0.00082170706
0.000821706365
0.000821692962
0.000821675659
0.00082165672
0.000821638649
0.000821623736
0.000821613724
0.000821609641
0.000821611798
0.000821619902
0.000821633208
0.000821650655
0.000821670961
0.000821692668
0.000821714196
0.000821733937
0.000821750432
0.000821762626
0.000821770139
0.000821773454
0.000821773944
0.000821773673
0.00082177499
0.000821780031
0.000821790251
0.000821806149
0.000821827244
0.000821852328
0.000821879867
0.000821908424
0.000821936966
0.000821964963
0.000821992321
0.000822019194
0.000822045794
0.000822072256
0.000822098594
0.000822124725
0.000822150525
0.000822175881
0.000822200715
0.000822224998
0.000822248722
0.0008222719
0.000822294559
0.000822316721
0.000822338415
0.000822359678
0.000822380541
0.000822401038
0.000822421209
0.000822441078
0.000822460669
0.000822480005
0.00082249909
0.000822517926
0.00082253651
0.000822554818
0.000822572822
0.000822590475
0.000822607726
0.000822623689
0.000822610311
0.000822593905
0.000822575213
0.000822554109
0.00082253049
0.000822504259
0.000822475352
0.000822443751
0.000822409472
0.000822372595
0.000822333273
0.00082229172
0.000822248235
0.000822203197
0.000822157046
0.000822110294
0.000822063493
0.00082201723
0.000821972081
0.000821928619
0.000821887356
0.000821848748
0.000821813165
0.00082178089
0.000821752098
0.000821726873
0.000821705213
0.000821687025
0.000821672156
0.000821660404
0.000821651518
0.000821645229
0.000821641258
0.000821639316
0.000821639127
0.000821640423
0.000821642963
0.000821646514
0.000821650872
0.000821655862
0.000821661319
0.000821667107
0.000821673114
0.000821679237
0.000821685393
0.000821691524
0.000821697569
0.000821703486
0.00082170925
0.000821714829
0.000821720204
0.000821725369
0.000821730311
0.000821735027
0.000821739517
0.00082174379
0.000821747842
0.000821750559
0.000821750453
0.000821750218
0.000821750221
0.000821750438
0.000821750838
0.000821751396
0.000821752098
0.000821752921
0.000821753846
0.000821754865
0.00082175596
0.000821757117
0.000821758332
0.000821759591
0.000821760885
0.000821762207
0.000821763555
0.000821764914
0.000821766289
0.000821767668
0.00082176905
0.000821770428
0.000821771805
0.000821773174
0.000821774531
0.000821775881
0.000821777216
0.000821778535
0.000821779842
0.00082178113
0.000821782399
0.000821783653
0.000821784887
0.000821786103
0.000821787296
0.000821788475
0.000821789632
0.000821790768
0.000821791888
0.000821792988
0.000821794067
0.000821795129
0.000821796186
0.000821797168
0.000821818516
0.000821738099
0.000821744201
0.000821725826
0.00082170421
0.000821681831
0.000821662077
0.000821648063
0.000821641703
0.000821643441
0.000821652448
0.000821666936
0.000821684618
0.00082168335
0.000821666543
0.000821655641
0.000821650746
0.000821651381
0.000821656695
0.000821665622
0.000821676919
0.000821689144
0.000821700567
0.000821708941
0.000821701836
0.000821698071
0.000821700365
0.000821686856
0.000821667164
0.000821645392
0.000821624289
0.000821606404
0.00082159371
0.000821587406
0.000821587909
0.000821594963
0.000821607806
0.000821625317
0.000821646113
0.000821668598
0.000821691022
0.000821711585
0.000821728641
0.000821740979
0.000821748125
0.00082175056
0.000821749753
0.000821747956
0.000821747762
0.000821751565
0.000821761026
0.000821776761
0.000821798295
0.000821824331
0.000821853181
0.000821883249
0.000821913363
0.00082194291
0.000821971761
0.000822000074
0.000822028076
0.000822055915
0.000822083607
0.000822111062
0.000822138145
0.000822164728
0.000822190731
0.000822216124
0.000822240906
0.0008222651
0.000822288745
0.000822311874
0.000822334531
0.000822356768
0.000822378627
0.000822400158
0.000822421413
0.000822442426
0.000822463233
0.000822483866
0.000822504339
0.000822524662
0.000822544839
0.000822564854
0.000822584686
0.000822604297
0.000822623642
0.000822642626
0.000822632428
0.000822615566
0.000822596257
0.000822574338
0.000822549662
0.00082252209
0.000822491514
0.000822457874
0.000822421153
0.000822381407
0.000822338778
0.000822293492
0.000822245876
0.000822196365
0.000822145478
0.000822093827
0.000822042085
0.000821990968
0.000821941189
0.00082189345
0.00082184838
0.000821806533
0.000821768346
0.000821734143
0.000821704111
0.000821678315
0.000821656716
0.000821639162
0.000821625429
0.000821615237
0.000821608254
0.00082160413
0.000821602515
0.000821603051
0.0008216054
0.000821609246
0.000821614305
0.00082162031
0.00082162703
0.000821634272
0.000821641857
0.00082164964
0.000821657506
0.000821665351
0.000821673093
0.000821680678
0.00082168805
0.000821695174
0.000821702031
0.000821708598
0.000821714866
0.000821720838
0.000821726509
0.000821731886
0.000821736972
0.000821741784
0.000821745679
0.000821746416
0.000821746198
0.000821746234
0.000821746491
0.000821746948
0.000821747573
0.000821748342
0.000821749242
0.000821750248
0.000821751344
0.000821752523
0.000821753766
0.00082175506
0.000821756403
0.000821757779
0.000821759183
0.000821760606
0.000821762048
0.000821763494
0.00082176495
0.000821766404
0.000821767856
0.000821769299
0.000821770737
0.000821772163
0.000821773573
0.000821774973
0.000821776354
0.000821777716
0.000821779064
0.00082178039
0.000821781694
0.000821782983
0.000821784248
0.000821785492
0.000821786714
0.000821787918
0.0008217891
0.00082179026
0.000821791403
0.000821792524
0.000821793624
0.000821794706
0.000821795782
0.000821796777
0.000821818146
0.000821737523
0.000821742115
0.00082172186
0.000821698131
0.000821673674
0.000821652223
0.000821637181
0.000821630612
0.000821632952
0.000821643233
0.000821659446
0.000821679045
0.000821681138
0.000821662331
0.000821649888
0.000821643979
0.000821644133
0.000821649461
0.000821658819
0.000821670858
0.000821683992
0.000821696332
0.000821702563
0.000821692278
0.000821687683
0.000821690845
0.000821680337
0.000821658142
0.000821633416
0.000821609163
0.000821588195
0.000821572713
0.00082156409
0.000821562844
0.00082156876
0.000821581058
0.000821598553
0.00082161976
0.000821642952
0.000821666218
0.000821687579
0.0008217052
0.000821717707
0.00082172452
0.000821726102
0.000821724016
0.000821720701
0.00082171901
0.0008217216
0.00082173035
0.000821745998
0.000821768082
0.00082179521
0.000821825543
0.000821857312
0.000821889202
0.000821920506
0.000821951052
0.000821980992
0.000822010566
0.000822039932
0.000822069106
0.000822097989
0.000822126432
0.000822154298
0.0008221815
0.000822208011
0.000822233838
0.000822259016
0.000822283601
0.000822307644
0.000822331205
0.000822354355
0.000822377156
0.000822399673
0.000822421973
0.000822444107
0.000822466122
0.00082248806
0.000822509944
0.000822531793
0.000822553619
0.000822575413
0.000822597164
0.000822618842
0.000822640408
0.000822661795
0.000822658054
0.000822640959
0.000822621243
0.000822598697
0.000822573123
0.000822544325
0.000822512136
0.00082247644
0.000822437168
0.000822394336
0.000822348065
0.000822298581
0.000822246242
0.000822191545
0.000822135103
0.000822077655
0.000822020026
0.000821963103
0.000821907776
0.000821854919
0.000821805314
0.000821759637
0.000821718413
0.000821682014
0.000821650632
0.000821624305
0.000821602933
0.000821586285
0.000821574038
0.000821565812
0.000821561169
0.000821559662
0.000821560849
0.00082156429
0.000821569581
0.000821576346
0.000821584256
0.000821593009
0.000821602348
0.000821612061
0.000821621961
0.000821631894
0.000821641747
0.000821651417
0.00082166083
0.000821669935
0.000821678688
0.000821687061
0.000821695044
0.000821702623
0.000821709798
0.000821716577
0.000821722963
0.000821728971
0.00082173461
0.000821739713
0.000821741332
0.000821741209
0.000821741354
0.000821741732
0.000821742308
0.00082174306
0.000821743958
0.000821744981
0.000821746115
0.000821747339
0.000821748636
0.00082175
0.000821751414
0.000821752867
0.000821754356
0.000821755867
0.000821757396
0.000821758934
0.000821760482
0.000821762028
0.000821763574
0.000821765113
0.000821766642
0.000821768157
0.000821769662
0.000821771149
0.000821772617
0.00082177407
0.000821775501
0.000821776909
0.0008217783
0.000821779667
0.00082178101
0.000821782334
0.000821783633
0.00082178491
0.000821786161
0.000821787395
0.000821788604
0.000821789789
0.000821790957
0.000821792101
0.000821793223
0.000821794325
0.000821795422
0.000821796434
0.00082181784
0.000821736916
0.000821739929
0.000821717719
0.000821691802
0.000821665202
0.000821642
0.000821625896
0.0008216191
0.000821622035
0.000821633594
0.000821651538
0.000821673055
0.000821678975
0.000821658122
0.000821644096
0.000821637138
0.000821636788
0.000821642119
0.000821651914
0.000821664716
0.000821678799
0.000821692084
0.000821693269
0.000821681508
0.00082167603
0.000821679051
0.000821673628
0.000821648831
0.000821621033
0.000821593494
0.000821569295
0.000821550874
0.000821539782
0.00082153665
0.00082154131
0.000821552968
0.000821570378
0.000821591951
0.000821615821
0.000821639904
0.000821662027
0.000821680167
0.000821692789
0.000821699217
0.000821699911
0.000821696531
0.000821691713
0.000821688562
0.000821690002
0.00082169813
0.000821713808
0.000821736585
0.000821764977
0.000821796985
0.000821830664
0.000821864546
0.000821897822
0.000821930274