/*--------------------------------*- C++ -*----------------------------------*\
| =========                 |                                                 |
| \\      /  F ield         | OpenFOAM: The Open Source CFD Toolbox           |
|  \\    /   O peration     | Version:  v2012                                 |
|   \\  /    A nd           | Website:  www.openfoam.com                      |
|    \\/     M anipulation  |                                                 |
\*---------------------------------------------------------------------------*/
FoamFile
{
    version     2.0;
    format      ascii;
    class       surfaceVectorField;
    location    "2.24";
    object      Uf;
}
// * * * * * * * * * * * * * * * * * * * * * * * * * * * * * * * * * * * * * //

dimensions      [0 1 -1 0 0 0 0];


internalField   nonuniform List<vector> 
56481
(
(0.0999899644 2.62831379e-05 0)
(0.0999979051 2.35867587e-05 0)
(0.0999660556 4.82249585e-05 0)
(0.0999825205 6.28711537e-05 0)
(0.0999320639 6.32754842e-05 0)
(0.0999534901 9.28805827e-05 0)
(0.0998920748 6.93065855e-05 0)
(0.0999143715 0.000110308118 0)
(0.099850186 6.59204062e-05 0)
(0.0998706414 0.000113628544 0)
(0.0998100363 5.41938237e-05 0)
(0.0998268363 0.000103972679 0)
(0.0997747543 3.54300438e-05 0)
(0.09978628 8.34375446e-05 0)
(0.0997472839 1.04310199e-05 0)
(0.0997518968 5.34961987e-05 0)
(0.0997301699 -2.03208965e-05 0)
(0.099726249 1.45992328e-05 0)
(0.0997192554 -5.38058747e-05 0)
(0.0997102199 -2.84373523e-05 0)
(0.0997162656 -8.40367341e-05 0)
(0.0997042744 -7.20409647e-05 0)
(0.0997212694 -0.000105197641 0)
(0.0997087914 -0.000108731403 0)
(0.0997322359 -0.000112737358 0)
(0.099722174 -0.000131021234 0)
(0.0997456404 -0.000104036969 0)
(0.0997410199 -0.000133401859 0)
(0.0997574339 -7.92149707e-05 0)
(0.0997607367 -0.000113899373 0)
(0.0997641165 -4.10444754e-05 0)
(0.0997764109 -7.46297715e-05 0)
(0.09976405 5.17688726e-06 0)
(0.0997839106 -2.12333678e-05 0)
(0.0997519997 5.3341233e-05 0)
(0.0997801111 4.0841381e-05 0)
(0.0997268483 9.8997419e-05 0)
(0.0997625501 0.000102431271 0)
(0.0996906816 0.000138762875 0)
(0.0997310542 0.000158054861 0)
(0.0996460922 0.000169543242 0)
(0.0996881444 0.000203437383 0)
(0.0995959905 0.000189285716 0)
(0.0996371102 0.000235358172 0)
(0.0995432723 0.000197287146 0)
(0.0995812916 0.000252394769 0)
(0.0994906908 0.000194029609 0)
(0.0995240644 0.000254599862 0)
(0.0994407649 0.000181019811 0)
(0.0994686181 0.000243248404 0)
(0.0993956863 0.000160653814 0)
(0.0994177615 0.000220688879 0)
(0.0993571858 0.00013608692 0)
(0.0993738261 0.000190242671 0)
(0.0993263168 0.000111109898 0)
(0.0993385003 0.00015617254 0)
(0.0993031767 8.99482672e-05 0)
(0.0993125547 0.000123616126 0)
(0.0992866584 7.68754544e-05 0)
(0.0992955394 9.82843148e-05 0)
(0.0992743685 7.5618138e-05 0)
(0.099285578 8.57889475e-05 0)
(0.0992628656 8.86453517e-05 0)
(0.0992794026 9.06380759e-05 0)
(0.0992482228 0.000116509308 0)
(0.0992727285 0.000115139779 0)
(0.0992266944 0.000157480567 0)
(0.0992609145 0.000158599202 0)
(0.0991953428 0.000207718915 0)
(0.099239764 0.000217168078 0)
(0.0991525334 0.000262033208 0)
(0.0992062945 0.000284527099 0)
(0.0990981527 0.000315034449 0)
(0.0991592763 0.000353275181 0)
(0.0990334846 0.00036233075 0)
(0.0990993613 0.000416632245 0)
(0.0989607466 0.000401392269 0)
(0.0990287439 0.000469920528 0)
(0.0988824416 0.000431828887 0)
(0.0989504539 0.000511366381 0)
(0.0988007501 0.00045503293 0)
(0.0988675201 0.000542000526 0)
(0.0987171334 0.000473371564 0)
(0.09878228 0.000564761454 0)
(0.0986322322 0.000489265237 0)
(0.098696027 0.000583200717 0)
(0.0985460268 0.000504486501 0)
(0.0986090467 0.000600298645 0)
(0.098458142 0.00051986957 0)
(0.0985209413 0.000617780088 0)
(0.0983681528 0.000535419878 0)
(0.0984310586 0.000636049015 0)
(0.0982757894 0.000550658352 0)
(0.0983388474 0.000654587007 0)
(0.0981810057 0.000564990308 0)
(0.0982440384 0.000672515437 0)
(0.0980839443 0.000577948623 0)
(0.0981466541 0.00068904674 0)
(0.097984856 0.000589268073 0)
(0.0980469141 0.000703691142 0)
(0.0978840285 0.000598836708 0)
(0.0979451225 0.000716239972 0)
(0.0977817491 0.000606604345 0)
(0.0978415907 0.00072663566 0)
(0.097678301 0.000612511367 0)
(0.0977366128 0.000734841299 0)
(0.0975739761 0.000616461706 0)
(0.0976304764 0.000740770971 0)
(0.0974690898 0.000618331048 0)
(0.0975234857 0.000744283884 0)
(0.0973639883 0.000617988693 0)
(0.0974159772 0.000745212989 0)
(0.0972590493 0.00061531594 0)
(0.0973083246 0.000743396789 0)
(0.0971546774 0.000610214713 0)
(0.0972009355 0.000738697992 0)
(0.0970512991 0.000602608429 0)
(0.0970942441 0.00073100814 0)
(0.0969493579 0.00059243978 0)
(0.0969887053 0.000720244934 0)
(0.0968493112 0.000579668742 0)
(0.0968847894 0.000706348675 0)
(0.0967516262 0.000564271866 0)
(0.0967829787 0.000689280727 0)
(0.0966567758 0.000546242499 0)
(0.0966837638 0.00066902385 0)
(0.0965652343 0.00052559143 0)
(0.0965876386 0.000645583215 0)
(0.0964774723 0.00050234787 0)
(0.0964950967 0.000618987274 0)
(0.096393953 0.000476560885 0)
(0.0964066264 0.00058928831 0)
(0.0963151287 0.000448301325 0)
(0.0963227077 0.000556562752 0)
(0.0962414396 0.000417663865 0)
(0.0962438098 0.000520911314 0)
(0.0961733151 0.000384768228 0)
(0.0961703904 0.000482458672 0)
(0.0961111753 0.000349758634 0)
(0.0961028956 0.000441352292 0)
(0.0960554347 0.000312800999 0)
(0.0960417609 0.00039775998 0)
(0.0960065036 0.000274077702 0)
(0.0959874121 0.000351866164 0)
(0.0959647895 0.000233779989 0)
(0.0959402632 0.000303866264 0)
(0.0959306921 0.000192100222 0)
(0.0959007141 0.000253958909 0)
(0.0959045903 0.000149221625 0)
(0.0958691497 0.000202329514 0)
(0.0958868743 0.000105271959 0)
(0.0958459213 0.000149114399 0)
(0.0958776244 6.03313078e-05 0)
(0.0958313074 9.47273939e-05 0)
(0.0958765557 1.47482988e-05 0)
(0.0958254617 3.95868313e-05 0)
(0.0958842532 -3.08784521e-05 0)
(0.09582853 -1.63454364e-05 0)
(0.0959016314 -7.6391711e-05 0)
(0.0958410197 -7.25704862e-05 0)
(0.0959286033 -0.000121902664 0)
(0.0958633567 -0.000128824755 0)
(0.0959651088 -0.000167247266 0)
(0.0958954812 -0.000185001224 0)
(0.0960110461 -0.000212151858 0)
(0.0959373054 -0.000240758693 0)
(0.0960662955 -0.00025635782 0)
(0.0959887973 -0.000295792239 0)
(0.0961306768 -0.000299599403 0)
(0.0960498342 -0.000349776118 0)
(0.0962039329 -0.000341595026 0)
(0.096120195 -0.000402351468 0)
(0.0962857302 -0.000382054856 0)
(0.0961995891 -0.000453148387 0)
(0.0963756597 -0.00042068214 0)
(0.0962876482 -0.000501791974 0)
(0.0964732392 -0.000457174419 0)
(0.0963839204 -0.000547904145 0)
(0.0965779204 -0.000491230188 0)
(0.0964878768 -0.000591111048 0)
(0.0966890972 -0.000522559557 0)
(0.0965989202 -0.000631053703 0)
(0.0968061132 -0.000550896548 0)
(0.0967163918 -0.000667399469 0)
(0.0969282687 -0.00057601073 0)
(0.0968395786 -0.00069985335 0)
(0.0970548271 -0.00059771626 0)
(0.0969677206 -0.000728167954 0)
(0.0971850212 -0.000615877229 0)
(0.0971000189 -0.000752151007 0)
(0.0973180616 -0.00063040953 0)
(0.0972356444 -0.000771670028 0)
(0.0974531457 -0.000641280327 0)
(0.0973737484 -0.000786654499 0)
(0.0975894688 -0.000648506173 0)
(0.0975134746 -0.000797095995 0)
(0.097726236 -0.000652150454 0)
(0.097653972 -0.000803046708 0)
(0.0978626734 -0.000652320389 0)
(0.0977944079 -0.000804616614 0)
(0.0979980389 -0.000649163501 0)
(0.0979339799 -0.000801969423 0)
(0.0981316322 -0.000642863387 0)
(0.0980719277 -0.00079531738 0)
(0.0982628024 -0.000633634788 0)
(0.0982075421 -0.000784915063 0)
(0.0983909547 -0.000621718028 0)
(0.0983401728 -0.000771052376 0)
(0.0985155551 -0.000607373021 0)
(0.0984692345 -0.000754046989 0)
(0.0986361338 -0.000590873144 0)
(0.0985942112 -0.000734236547 0)
(0.0987522867 -0.000572499154 0)
(0.0987146578 -0.000711970921 0)
(0.098863676 -0.000552533468 0)
(0.0988302015 -0.000687604785 0)
(0.0989700291 -0.000531254921 0)
(0.0989405406 -0.000661490771 0)
(0.0990711366 -0.000508934202 0)
(0.0990454426 -0.000633973353 0)
(0.0991668494 -0.000485829974 0)
(0.0991447408 -0.000605383599 0)
(0.0992570747 -0.000462185747 0)
(0.0992383302 -0.000576034841 0)
(0.0993417712 -0.000438227386 0)
(0.0993261625 -0.000546219233 0)
(0.0994209445 -0.000414161215 0)
(0.0994082406 -0.000516205116 0)
(0.099494641 -0.000390172648 0)
(0.0994846127 -0.000486235066 0)
(0.0995629417 -0.000366425025 0)
(0.099555366 -0.000456524347 0)
(0.0996259536 -0.000343057995 0)
(0.0996206204 -0.000427259008 0)
(0.0996838137 -0.000320186539 0)
(0.0996805249 -0.000398591918 0)
(0.0997367026 -0.000297904226 0)
(0.0997352606 -0.000370643837 0)
(0.0997848278 -0.00027628819 0)
(0.0997850381 -0.000343515323 0)
(0.0998284117 -0.000255401736 0)
(0.0998300881 -0.000317290767 0)
(0.099867686 -0.00023529554 0)
(0.0998706525 -0.000292039081 0)
(0.0999028866 -0.000216008486 0)
(0.0999069789 -0.000267814059 0)
(0.0999342514 -0.000197568498 0)
(0.099939317 -0.000244655109 0)
(0.0999620166 -0.000179993552 0)
(0.0999679152 -0.000222588343 0)
(0.0999864158 -0.000163292822 0)
(0.0999930186 -0.000201627876 0)
(0.100007677 -0.000147467926 0)
(0.100014867 -0.000181777087 0)
(0.100026021 -0.000132513996 0)
(0.100033692 -0.000163029561 0)
(0.100041658 -0.000118419799 0)
(0.100049717 -0.000145369641 0)
(0.10005479 -0.000105168066 0)
(0.100063156 -0.000128778407 0)
(0.100065609 -9.27367783e-05 0)
(0.100074212 -0.000113231183 0)
(0.100074297 -8.10997362e-05 0)
(0.100083077 -9.8695355e-05 0)
(0.100081028 -7.02261192e-05 0)
(0.100089935 -8.5132478e-05 0)
(0.100085963 -6.00798929e-05 0)
(0.100094957 -7.24992629e-05 0)
(0.10008926 -5.06197395e-05 0)
(0.100098308 -6.07483179e-05 0)
(0.100091071 -4.17999122e-05 0)
(0.100100147 -4.98292751e-05 0)
(0.100091548 -3.35718086e-05 0)
(0.100100629 -3.96905503e-05 0)
(0.100090848 -2.58845119e-05 0)
(0.100099909 -3.02811448e-05 0)
(0.100089132 -1.86842635e-05 0)
(0.10009815 -2.15515609e-05 0)
(0.100086594 -1.19308275e-05 0)
(0.100095515 -1.34713339e-05 0)
(0.100083526 -5.68152835e-06 0)
(0.100092117 -6.09417236e-06 0)
(0.100080435 -1.81909339e-07 0)
(0.100088126 2.87199082e-07 0)
(0.100076358 4.50362077e-06 0)
(0.100083604 6.62561072e-06 0)
(0.100071268 8.57493153e-06 0)
(0.100078423 1.18536038e-05 0)
(0.100065401 1.22003657e-05 0)
(0.10007252 1.64065249e-05 0)
(0.100058901 1.55077428e-05 0)
(0.100065953 2.04734017e-05 0)
(0.100051894 1.85614395e-05 0)
(0.100058862 2.41522956e-05 0)
(0.100044496 2.13837877e-05 0)
(0.100051372 2.74810548e-05 0)
(0.100036808 2.39834483e-05 0)
(0.100043572 3.04879472e-05 0)
(0.100028909 2.63625984e-05 0)
(0.10003553 3.31976418e-05 0)
(0.100020858 2.85188808e-05 0)
(0.100027304 3.5627851e-05 0)
(0.100012701 3.04488475e-05 0)
(0.100018946 3.77902732e-05 0)
(0.100004471 3.21518968e-05 0)
(0.100010501 3.96939484e-05 0)
(0.0999961921 3.36325572e-05 0)
(0.100002001 4.13486579e-05 0)
(0.0999878846 3.49003617e-05 0)
(0.0999934718 4.27661608e-05 0)
(0.0999795656 3.59685205e-05 0)
(0.0999849365 4.39600233e-05 0)
(0.0999712514 3.6852493e-05 0)
(0.0999764143 4.49452351e-05 0)
(0.0999629583 3.7568733e-05 0)
(0.0999679226 4.57377004e-05 0)
(0.0999547026 3.81336497e-05 0)
(0.0999594778 4.63536015e-05 0)
(0.0999465006 3.85628259e-05 0)
(0.0999510953 4.68087946e-05 0)
(0.0999383685 3.88704896e-05 0)
(0.0999427902 4.71183439e-05 0)
(0.0999303216 3.90692013e-05 0)
(0.0999345764 4.72962096e-05 0)
(0.0999223746 3.91697422e-05 0)
(0.0999264673 4.73550369e-05 0)
(0.0999145406 3.91811899e-05 0)
(0.099918475 4.73060519e-05 0)
(0.0999068315 3.9111123e-05 0)
(0.0999106105 4.71590963e-05 0)
(0.0998992575 3.89658814e-05 0)
(0.0999028837 4.69227623e-05 0)
(0.0998918272 3.87508489e-05 0)
(0.099895303 4.66045737e-05 0)
(0.0998845478 3.84707393e-05 0)
(0.0998878755 4.62111893e-05 0)
(0.0998774251 3.81298634e-05 0)
(0.0998806071 4.57486072e-05 0)
(0.0998704634 3.77323505e-05 0)
(0.0998735026 4.52223504e-05 0)
(0.0998636663 3.72823057e-05 0)
(0.0998665658 4.46376166e-05 0)
(0.0998570365 3.67838976e-05 0)
(0.0998597996 4.39993865e-05 0)
(0.099850576 3.62413797e-05 0)
(0.0998532065 4.33124871e-05 0)
(0.0998442868 3.56590563e-05 0)
(0.0998467883 4.25816115e-05 0)
(0.0998381702 3.50412159e-05 0)
(0.0998405466 4.18113025e-05 0)
(0.0998322279 3.43920373e-05 0)
(0.0998344828 4.10059105e-05 0)
(0.0998264613 3.37154802e-05 0)
(0.0998285982 4.01695442e-05 0)
(0.0998208719 3.30151866e-05 0)
(0.0998228938 3.93060249e-05 0)
(0.0998154613 3.22944219e-05 0)
(0.099817371 3.84188432e-05 0)
(0.099810231 3.15560627e-05 0)
(0.0998120307 3.75111298e-05 0)
(0.0998051825 3.08026043e-05 0)
(0.0998068743 3.65856457e-05 0)
(0.0998003173 3.00361887e-05 0)
(0.0998019025 3.5644768e-05 0)
(0.099795637 2.92585529e-05 0)
(0.0997971172 3.46905212e-05 0)
(0.0997911434 2.84712825e-05 0)
(0.0997925177 3.37243802e-05 0)
(0.0997868385 2.76746542e-05 0)
(0.0997881121 3.27479143e-05 0)
(0.0997827252 2.68723321e-05 0)
(0.0997838794 3.17595041e-05 0)
(0.0997788071 2.60495885e-05 0)
(0.0997799015 3.0767299e-05 0)
(0.0997750941 2.52667509e-05 0)
(0.0997759148 2.9728347e-05 0)
(0.0997715888 2.42271569e-05 0)
(0.0997728882 2.88143958e-05 0)
(0.0997677655 2.71628581e-05 0)
(0.0999924571 5.54883484e-05 0)
(0.0999980704 3.22724804e-05 0)
(0.0999695782 0.000100963379 0)
(0.0999833137 8.92166388e-05 0)
(0.0999349543 0.000132290858 0)
(0.0999545807 0.000132750537 0)
(0.0998927457 0.000146610578 0)
(0.099915017 0.000158911914 0)
(0.0998474039 0.000143769051 0)
(0.0998701757 0.000165840305 0)
(0.0998030507 0.000125839655 0)
(0.0998248285 0.000155045989 0)
(0.0997631462 9.51701928e-05 0)
(0.0997824401 0.000129388254 0)
(0.0997304896 5.34324675e-05 0)
(0.0997458828 9.11007407e-05 0)
(0.099706659 2.47724033e-06 0)
(0.0997175891 4.20405438e-05 0)
(0.0996953119 -5.27635072e-05 0)
(0.0996999479 -1.53709967e-05 0)
(0.099696808 -0.000103955995 0)
(0.0996946819 -7.37638067e-05 0)
(0.0997095682 -0.00014199454 0)
(0.0997015898 -0.000123424882 0)
(0.0997306927 -0.000158966607 0)
(0.0997186483 -0.000155346477 0)
(0.0997557151 -0.000150189146 0)
(0.0997420856 -0.000162215457 0)
(0.0997792798 -0.000115520123 0)
(0.0997667441 -0.000141034529 0)
(0.0997958624 -5.92788932e-05 0)
(0.0997870668 -9.37249248e-05 0)
(0.0997999911 1.06277528e-05 0)
(0.0997979269 -2.59876026e-05 0)
(0.0997906354 8.48738821e-05 0)
(0.0997958229 5.16145866e-05 0)
(0.0997663535 0.000155526588 0)
(0.099779354 0.000130392312 0)
(0.0997281569 0.000216487697 0)
(0.0997486436 0.000202038791 0)
(0.0996788502 0.000263062739 0)
(0.0997054622 0.000260214819 0)
(0.099622036 0.000292460945 0)
(0.0996529764 0.000300780515 0)
(0.0995616589 0.000303897896 0)
(0.0995949114 0.00032191992 0)
(0.0995015448 0.000298219119 0)
(0.0995350629 0.000323822141 0)
(0.0994451542 0.000277577822 0)
(0.0994770286 0.00030818303 0)
(0.099395437 0.000245284441 0)
(0.0994240086 0.000277939015 0)
(0.0993546769 0.000205782208 0)
(0.099378662 0.000237178605 0)
(0.0993242684 0.000164653215 0)
(0.0993429322 0.000191188358 0)
(0.0993044324 0.000128446009 0)
(0.0993177752 0.000146457604 0)
(0.0992939526 0.000104101235 0)
(0.0993028399 0.000110351886 0)
(0.0992900759 9.79100781e-05 0)
(0.0992962304 9.02530472e-05 0)
(0.0992886893 0.000114180431 0)
(0.0992944967 9.22347751e-05 0)
(0.0992848069 0.000154006525 0)
(0.099292972 0.000119610397 0)
(0.0992733499 0.0002146414 0)
(0.099286468 0.00017179218 0)
(0.0992500792 0.000289828596 0)
(0.0992701834 0.000243964603 0)
(0.0992124155 0.00037110345 0)
(0.0992405965 0.000327897381 0)
(0.0991598859 0.000449724726 0)
(0.0991961091 0.000413763797 0)
(0.0990940487 0.00051865962 0)
(0.0991372471 0.000492444764 0)
(0.0990179097 0.000574002245 0)
(0.099066337 0.000557595793 0)
(0.098935022 0.000615398734 0)
(0.098986747 0.000606812852 0)
(0.0988485701 0.000645410888 0)
(0.0989019441 0.000641551088 0)
(0.0987607239 0.000668138785 0)
(0.0988146735 0.000665917689 0)
(0.0986724229 0.000687670947 0)
(0.0987265055 0.000684880667 0)
(0.098583576 0.000706922941 0)
(0.0986378308 0.000702607218 0)
(0.09849351 0.000727180668 0)
(0.0985482088 0.000721492468 0)
(0.0984014466 0.000748322934 0)
(0.0984568604 0.000742061345 0)
(0.0983068349 0.000769434875 0)
(0.0983630925 0.000763533799 0)
(0.0982094732 0.00078944941 0)
(0.098266528 0.000784628876 0)
(0.0981094604 0.000807560103 0)
(0.0981671321 0.000804212991 0)
(0.0980070687 0.000823336315 0)
(0.0980651097 0.000821596809 0)
(0.097902625 0.000836625546 0)
(0.0979607733 0.00083650844 0)
(0.097796447 0.000847385209 0)
(0.0978544492 0.000848901244 0)
(0.0976888329 0.000855554189 0)
(0.097746444 0.000858760526 0)
(0.0975800821 0.000861004476 0)
(0.0976370555 0.000865999143 0)
(0.0974705192 0.000863555572 0)
(0.0975265977 0.00087044718 0)
(0.0973605077 0.000863012838 0)
(0.0974154212 0.000871892921 0)
(0.0972504507 0.000859199368 0)
(0.0973039192 0.00087012907 0)
(0.0971407849 0.000851970512 0)
(0.0971925233 0.000864979826 0)
(0.0970319724 0.000841214869 0)
(0.0970816955 0.000856307383 0)
(0.0969244942 0.000826850189 0)
(0.096971921 0.000844007631 0)
(0.0968188456 0.00080882019 0)
(0.0968637018 0.000828004635 0)
(0.0967155318 0.000787093964 0)
(0.0967575528 0.000808248156 0)
(0.0966150641 0.000761667032 0)
(0.0966539975 0.000784713971 0)
(0.0965179556 0.000732562527 0)
(0.0965535631 0.000757405085 0)
(0.0964247174 0.000699831657 0)
(0.096456776 0.000726352444 0)
(0.0963358549 0.000663553262 0)
(0.0963641574 0.000691614845 0)
(0.096251865 0.000623832593 0)
(0.0962762189 0.000653278343 0)
(0.0961732345 0.000580799616 0)
(0.09619346 0.000611455543 0)
(0.0961004382 0.000534606831 0)
(0.0961163664 0.000566284705 0)
(0.096033938 0.000485426722 0)
(0.0960454096 0.000517928269 0)
(0.0959741815 0.000433449045 0)
(0.0959810468 0.000466570492 0)
(0.0959216002 0.000378877559 0)
(0.0959237213 0.000412414345 0)
(0.0958766062 0.000321927046 0)
(0.0958738602 0.000355677482 0)
(0.0958395844 0.000262820492 0)
(0.0958318724 0.000296590043 0)
(0.0958108701 0.000201782176 0)
(0.0957981441 0.000235394529 0)
(0.0957906977 0.000139021574 0)
(0.0957730109 0.000172343243 0)
(0.095779428 7.47692334e-05 0)
(0.0957567719 0.000107704587 0)
(0.0957776704 9.42821629e-06 0)
(0.0957497565 4.16107025e-05 0)
(0.0957854759 -5.64225943e-05 0)
(0.0957522776 -2.53335849e-05 0)
(0.0958030017 -0.000122438769 0)
(0.0957645636 -9.27516816e-05 0)
(0.0958304314 -0.000188471533 0)
(0.0957868341 -0.000160410455 0)
(0.0958678215 -0.000254209093 0)
(0.0958192398 -0.000228056487 0)
(0.0959151886 -0.000319258563 0)
(0.0958618011 -0.000295302587 0)
(0.09597245 -0.000383229744 0)
(0.0959144868 -0.000361729657 0)
(0.0960394413 -0.000445711665 0)
(0.0959771962 -0.00042691763 0)
(0.096115921 -0.00050626729 0)
(0.0960497348 -0.000490418984 0)
(0.0962015624 -0.000564449147 0)
(0.0961318224 -0.000551765771 0)
(0.0962959518 -0.000619809345 0)
(0.0962230933 -0.000610482712 0)
(0.0963985911 -0.000671907384 0)
(0.096323092 -0.000666094896 0)
(0.0965089034 -0.000720320724 0)
(0.0964312754 -0.000718137259 0)
(0.0966262384 -0.000764656009 0)
(0.0965470188 -0.000766166773 0)
(0.0967498805 -0.000804559487 0)
(0.0966696219 -0.000809775108 0)
(0.0968790559 -0.000839726325 0)
(0.0967983158 -0.000848600755 0)
(0.0970129421 -0.00086990882 0)
(0.0969322724 -0.000882339953 0)
(0.0971506777 -0.000894923058 0)
(0.0970706147 -0.000910755663 0)
(0.0972913741 -0.000914653694 0)
(0.0972124297 -0.000933684013 0)
(0.0974341282 -0.000929056677 0)
(0.0973567818 -0.000951038083 0)
(0.0975780371 -0.000938159738 0)
(0.097502728 -0.000962809145 0)
(0.0977222113 -0.000942060613 0)
(0.0976493334 -0.000969065477 0)
(0.0978657894 -0.00094092322 0)
(0.0977956861 -0.000969949004 0)
(0.0980079504 -0.000934972054 0)
(0.0979409118 -0.000965669974 0)
(0.0981479248 -0.000924485155 0)
(0.098084186 -0.00095649997 0)
(0.0982850038 -0.000909786013 0)
(0.0982247453 -0.000942763556 0)
(0.0984185466 -0.000891234779 0)
(0.0983618956 -0.000924828947 0)
(0.0985479857 -0.000869219091 0)
(0.0984950189 -0.00090309807 0)
(0.0986728298 -0.000844144918 0)
(0.0986235769 -0.000877996455 0)
(0.0987926653 -0.000816427636 0)
(0.0987471137 -0.000849963303 0)
(0.0989071556 -0.000786483711 0)
(0.0988652554 -0.000819442076 0)
(0.0990160393 -0.000754723111 0)
(0.0989777083 -0.000786871891 0)
(0.0991191265 -0.000721542686 0)
(0.0990842559 -0.00075267989 0)
(0.0992162952 -0.000687320536 0)
(0.0991847541 -0.000717274737 0)
(0.099307485 -0.000652411494 0)
(0.0992791259 -0.000681041297 0)
(0.0993926921 -0.000617143593 0)
(0.0993673552 -0.000644336472 0)
(0.0994719624 -0.00058181544 0)
(0.0994494803 -0.000607486101 0)
(0.0995453855 -0.000546694374 0)
(0.0995255867 -0.000570782833 0)
(0.099613088 -0.000512014901 0)
(0.0995958009 -0.000534484769 0)
(0.0996752284 -0.000477976752 0)
(0.0996602839 -0.000498814646 0)
(0.0997319951 -0.000444744168 0)
(0.0997192267 -0.000463959655 0)
(0.0997836048 -0.000412450495 0)
(0.0997728466 -0.000430073137 0)
(0.0998302946 -0.000381204807 0)
(0.0998213831 -0.000397279334 0)
(0.0998723148 -0.000351095502 0)
(0.0998650909 -0.000365677706 0)
(0.0999099232 -0.00032219206 0)
(0.0999042341 -0.000335345656 0)
(0.0999433803 -0.000294546358 0)
(0.0999390809 -0.000306340446 0)
(0.0999729464 -0.000268194046 0)
(0.0999698997 -0.000278700948 0)
(0.0999988784 -0.000243156118 0)
(0.0999969561 -0.000252449436 0)
(0.100021427 -0.000219440482 0)
(0.10002051 -0.000227593409 0)
(0.100040837 -0.000197043393 0)
(0.100040815 -0.000204127423 0)
(0.100057342 -0.00017595051 0)
(0.100058116 -0.000182034972 0)
(0.100071168 -0.00015613721 0)
(0.100072647 -0.0001612905 0)
(0.10008253 -0.000137569257 0)
(0.100084633 -0.000141861855 0)
(0.10009163 -0.000120204511 0)
(0.100094286 -0.000123710643 0)
(0.100098662 -0.000103994537 0)
(0.100101807 -0.000106792393 0)
(0.100103807 -8.8885691e-05 0)
(0.100107383 -9.10575866e-05 0)
(0.100107241 -7.48199803e-05 0)
(0.100111193 -7.64527015e-05 0)
(0.100109128 -6.17360616e-05 0)
(0.100113406 -6.2921359e-05 0)
(0.100109629 -4.95708059e-05 0)
(0.10011418 -5.0406025e-05 0)
(0.1001089 -3.82620922e-05 0)
(0.100113669 -3.88513796e-05 0)
(0.100107105 -2.77548161e-05 0)
(0.100112022 -2.82138785e-05 0)
(0.100104417 -1.80132309e-05 0)
(0.100109377 -1.84569363e-05 0)
(0.100100956 -9.03639091e-06 0)
(0.100105858 -9.48613991e-06 0)
(0.100096564 -8.37516927e-07 0)
(0.100101561 -1.03615487e-06 0)
(0.100091308 6.4531241e-06 0)
(0.100096522 6.33912054e-06 0)
(0.100085781 1.27785052e-05 0)
(0.100090886 1.29902854e-05 0)
(0.10007967 1.82881682e-05 0)
(0.100084764 1.88901632e-05 0)
(0.100072998 2.31442633e-05 0)
(0.100078107 2.40893742e-05 0)
(0.100065846 2.74796063e-05 0)
(0.10007094 2.87091604e-05 0)
(0.100058297 3.13677751e-05 0)
(0.100063333 3.28458123e-05 0)
(0.100050414 3.48509378e-05 0)
(0.100055377 3.6557745e-05 0)
(0.100042258 3.79655553e-05 0)
(0.100047152 3.98800551e-05 0)
(0.100033886 4.07441163e-05 0)
(0.100038722 4.28379386e-05 0)
(0.100025353 4.32123519e-05 0)
(0.100030139 4.54534211e-05 0)
(0.100016708 4.53893378e-05 0)
(0.100021446 4.77455014e-05 0)
(0.100007992 4.72901967e-05 0)
(0.100012683 4.97307112e-05 0)
(0.0999992405 4.89288573e-05 0)
(0.100003881 5.1426005e-05 0)
(0.0999904834 5.03193532e-05 0)
(0.0999950658 5.28500354e-05 0)
(0.099981745 5.14762626e-05 0)
(0.0999862615 5.40223899e-05 0)
(0.0999730457 5.24148445e-05 0)
(0.0999774879 5.4962691e-05 0)
(0.0999644028 5.31508701e-05 0)
(0.099968763 5.56901118e-05 0)
(0.0999558319 5.37002304e-05 0)
(0.0999601032 5.62231161e-05 0)
(0.099947347 5.40785265e-05 0)
(0.0999515238 5.65792293e-05 0)
(0.0999389611 5.43007704e-05 0)
(0.099943039 5.67748785e-05 0)
(0.0999306859 5.43811596e-05 0)
(0.099934662 5.68252277e-05 0)
(0.0999225323 5.43328655e-05 0)
(0.0999264047 5.67439908e-05 0)
(0.0999145104 5.41678894e-05 0)
(0.0999182781 5.65434511e-05 0)
(0.099906629 5.38970411e-05 0)
(0.0999102918 5.62345789e-05 0)
(0.0998988963 5.35300115e-05 0)
(0.0999024544 5.58271565e-05 0)
(0.099891319 5.30754875e-05 0)
(0.099894773 5.53299125e-05 0)
(0.0998839031 5.25412844e-05 0)
(0.0998872538 5.4750677e-05 0)
(0.0998766536 5.19344823e-05 0)
(0.0998799019 5.40965479e-05 0)
(0.0998695745 5.12615557e-05 0)
(0.0998727214 5.33740479e-05 0)
(0.0998626691 5.05284858e-05 0)
(0.0998657155 5.25892548e-05 0)
(0.0998559402 4.97408508e-05 0)
(0.0998588866 5.17478966e-05 0)
(0.0998493897 4.89038897e-05 0)
(0.0998522369 5.08554099e-05 0)
(0.0998430196 4.80225389e-05 0)
(0.0998457677 4.99169687e-05 0)
(0.099836831 4.71014468e-05 0)
(0.0998394804 4.89375033e-05 0)
(0.0998308252 4.61449732e-05 0)
(0.099833376 4.79216474e-05 0)
(0.0998250032 4.51571819e-05 0)
(0.0998274554 4.68737208e-05 0)
(0.0998193657 4.41418221e-05 0)
(0.0998217195 4.57976959e-05 0)
(0.0998139135 4.31022981e-05 0)
(0.0998161689 4.46971519e-05 0)
(0.0998086473 4.20416491e-05 0)
(0.0998108045 4.35752551e-05 0)
(0.0998035678 4.09625303e-05 0)
(0.0998056269 4.24347634e-05 0)
(0.0997986757 3.98672164e-05 0)
(0.0998006366 4.1278011e-05 0)
(0.099793972 3.87574953e-05 0)
(0.0997958349 4.01069378e-05 0)
(0.0997894575 3.76349156e-05 0)
(0.0997912205 3.89228547e-05 0)
(0.0997851334 3.64993657e-05 0)
(0.0997868011 3.77271905e-05 0)
(0.099781001 3.53545188e-05 0)
(0.0997825541 3.6518039e-05 0)
(0.0997770605 3.41820501e-05 0)
(0.0997785611 3.53048931e-05 0)
(0.0997733136 3.30582084e-05 0)
(0.0997745543 3.40429704e-05 0)
(0.0997697286 3.16020562e-05 0)
(0.0997715068 3.29425657e-05 0)
(0.0997663385 3.10191565e-05 0)
(0.0999912694 6.88995531e-05 0)
(0.0999979864 4.23258451e-05 0)
(0.0999681189 0.000125295594 0)
(0.09998294 0.00011587483 0)
(0.0999337334 0.000164483337 0)
(0.0999539858 0.000172345946 0)
(0.0998921662 0.000183547732 0)
(0.0999141284 0.00020677718 0)
(0.0998476909 0.000182473192 0)
(0.0998687333 0.000217054271 0)
(0.0998042003 0.000163655203 0)
(0.0998225948 0.000205126163 0)
(0.0997650233 0.000129829215 0)
(0.0997793342 0.000174501106 0)
(0.0997330299 8.32376169e-05 0)
(0.0997420307 0.000127941642 0)
(0.0997106988 2.69834526e-05 0)
(0.0997136103 6.77551849e-05 0)
(0.0996992904 -3.36597028e-05 0)
(0.0996964355 -2.23404964e-06 0)
(0.0996993846 -9.10283579e-05 0)
(0.0996916442 -7.38722705e-05 0)
(0.0997105121 -0.000135435129 0)
(0.0996993417 -0.000136238361 0)
(0.099729837 -0.00015758549 0)
(0.099717892 -0.000177599384 0)
(0.0997528832 -0.000151715848 0)
(0.099743269 -0.000188753566 0)
(0.0997743078 -0.000117138518 0)
(0.0997700384 -0.000165705222 0)
(0.099788971 -5.82338637e-05 0)
(0.0997923666 -0.00011060989 0)
(0.09979329 1.71908064e-05 0)
(0.0998052504 -3.09609403e-05 0)
(0.099784371 9.96022623e-05 0)
(0.0998050528 6.18849128e-05 0)
(0.0997614386 0.00017920104 0)
(0.0997897723 0.000156799298 0)
(0.0997255978 0.000247841261 0)
(0.0997595862 0.000243310044 0)
(0.099679229 0.000299933997 0)
(0.0997165342 0.000313609147 0)
(0.0996254859 0.00033236133 0)
(0.099663796 0.000362666583 0)
(0.0995679218 0.000344225263 0)
(0.0996051374 0.000388205833 0)
(0.0995101264 0.000336468544 0)
(0.0995444927 0.00039037445 0)
(0.0994554373 0.00031148866 0)
(0.099485649 0.000371158396 0)
(0.099406767 0.000272931571 0)
(0.0994320187 0.00033398356 0)
(0.0993664374 0.00022569081 0)
(0.0993864576 0.000283618705 0)
(0.0993359464 0.000175969685 0)
(0.0993510528 0.000226299216 0)
(0.0993156713 0.00013113916 0)
(0.0993268355 0.00016980468 0)
(0.0993045826 9.91240397e-05 0)
(0.0993134607 0.000123120778 0)
(0.0993000926 8.72318193e-05 0)
(0.0993089736 9.54233544e-05 0)
(0.0992981976 0.000100633496 0)
(0.0993098159 9.44168353e-05 0)
(0.0992940286 0.000140944891 0)
(0.0993111762 0.000124411033 0)
(0.0992826819 0.000205422772 0)
(0.0993076789 0.000184858108 0)
(0.0992600776 0.000287183517 0)
(0.0992942985 0.000269993812 0)
(0.0992236748 0.000376559746 0)
(0.0992672929 0.000369815801 0)
(0.0991728712 0.000463293305 0)
(0.0992248891 0.000472264837 0)
(0.0991089583 0.000538918723 0)
(0.0991675058 0.00056604143 0)
(0.099034623 0.0005985765 0)
(0.0990974356 0.000643194042 0)
(0.0989531457 0.000641672396 0)
(0.0990180826 0.000700635295 0)
(0.0988675529 0.000671222498 0)
(0.0989330034 0.00074011245 0)
(0.0987799908 0.000692225543 0)
(0.0988450626 0.00076674673 0)
(0.0986914817 0.000709751547 0)
(0.0987559497 0.000786800287 0)
(0.0986020676 0.0007274635 0)
(0.0986661491 0.000805568885 0)
(0.0985112027 0.000747001813 0)
(0.0985752731 0.000826124813 0)
(0.098418193 0.000768230188 0)
(0.098482553 0.00084916347 0)
(0.0983225188 0.000789995369 0)
(0.0983872739 0.000873704004 0)
(0.0982239694 0.000810942033 0)
(0.0982890208 0.000898110024 0)
(0.0981226154 0.000830047544 0)
(0.0981877205 0.000920923707 0)
(0.0980187014 0.000846777445 0)
(0.0980835489 0.000941255407 0)
(0.0979125383 0.000860963429 0)
(0.0979768019 0.000958756801 0)
(0.0978044411 0.000872585072 0)
(0.0978678012 0.00097337681 0)
(0.0976947152 0.000881599875 0)
(0.0977568573 0.000985111547 0)
(0.0975836726 0.000887876717 0)
(0.0976442775 0.00099386646 0)
(0.0974716527 0.000891212242 0)
(0.0975303894 0.000999439817 0)
(0.0973590351 0.000891379957 0)
(0.0974155606 0.00100157372 0)
(0.097246241 0.000888171847 0)
(0.0973002053 0.00100001325 0)
(0.0971337268 0.000881417539 0)
(0.0971847795 0.000994541618 0)
(0.0970219771 0.00087098554 0)
(0.0970697731 0.000984988882 0)
(0.0969114975 0.000856777547 0)
(0.0969557018 0.000971226543 0)
(0.0968028096 0.000838723687 0)
(0.0968430999 0.000953160396 0)
(0.0966964461 0.000816781027 0)
(0.0967325155 0.000930727313 0)
(0.0965929462 0.000790934151 0)
(0.0966245054 0.000903895677 0)
(0.0964928503 0.000761195981 0)
(0.0965196298 0.000872667022 0)
(0.0963966949 0.00072760798 0)
(0.0964184473 0.000837076941 0)
(0.0963050072 0.000690239808 0)
(0.0963215107 0.000797194623 0)
(0.0962183016 0.000649188818 0)
(0.0962293626 0.00075312115 0)
(0.0961370769 0.000604579601 0)
(0.0961425331 0.000704986959 0)
(0.096061816 0.000556563092 0)
(0.0960615372 0.000652948854 0)
(0.0959929861 0.000505314809 0)
(0.0959868739 0.000597186859 0)
(0.0959310409 0.000451032066 0)
(0.0959190245 0.000537901418 0)
(0.0958764201 0.000393930302 0)
(0.0958584522 0.000475311005 0)
(0.095829549 0.000334240214 0)
(0.0958056015 0.000409650261 0)
(0.0957908352 0.000272205848 0)
(0.095760896 0.000341169578 0)
(0.0957606674 0.000208085739 0)
(0.0957247382 0.000270133214 0)
(0.0957394106 0.000142178096 0)
(0.0956975082 0.000196820746 0)
(0.0957273789 7.48314391e-05 0)