/*--------------------------------*- C++ -*----------------------------------*\
| =========                 |                                                 |
| \\      /  F ield         | OpenFOAM: The Open Source CFD Toolbox           |
|  \\    /   O peration     | Version:  v2012                                 |
|   \\  /    A nd           | Website:  www.openfoam.com                      |
|    \\/     M anipulation  |                                                 |
\*---------------------------------------------------------------------------*/
FoamFile
{
    version     2.0;
    format      ascii;
    class       volVectorField;
    location    "2.79";
    object      H;
}
// * * * * * * * * * * * * * * * * * * * * * * * * * * * * * * * * * * * * * //

dimensions      [0 1 -2 0 0 0 0];


internalField   nonuniform List<vector> 
28416
(
(150.420323 -0.0176811659 0)
(150.439255 -0.0562998059 0)
(150.48267 -0.0933600668 0)
(150.544527 -0.119511588 0)
(150.61678 -0.126469723 0)
(150.690297 -0.110891192 0)
(150.756456 -0.0743769131 0)
(150.806765 -0.0214044464 0)
(150.839072 0.0435041743 0)
(150.855897 0.113409873 0)
(150.856057 0.178112542 0)
(150.838786 0.231603165 0)
(150.806871 0.269986771 0)
(150.76444 0.291045488 0)
(150.715943 0.294546715 0)
(150.665818 0.281868907 0)
(150.618117 0.255419822 0)
(150.576299 0.218295704 0)
(150.543076 0.174398084 0)
(150.520143 0.128823577 0)
(150.507765 0.0879714422 0)
(150.504378 0.0588685325 0)
(150.50623 0.0476876531 0)
(150.507644 0.0583263738 0)
(150.501985 0.0913070863 0)
(150.482646 0.143559756 0)
(150.444353 0.20917878 0)
(150.384095 0.280605748 0)
(150.301187 0.350075258 0)
(150.197063 0.410820623 0)
(150.07481 0.457784048 0)
(149.938502 0.487901995 0)
(149.792588 0.50010649 0)
(149.64146 0.49516684 0)
(149.489189 0.475470599 0)
(149.339333 0.444798999 0)
(149.19473 0.408099818 0)
(149.05721 0.371199704 0)
(148.927219 0.340365283 0)
(148.803456 0.321659302 0)
(148.682719 0.320123115 0)
(148.560186 0.33890217 0)
(148.430218 0.378493981 0)
(148.287479 0.436351056 0)
(148.128017 0.507085913 0)
(147.949981 0.583399007 0)
(147.753848 0.657574925 0)
(147.542134 0.723126801 0)
(147.318699 0.776073749 0)
(147.08786 0.815456423 0)
(146.853544 0.842976343 0)
(146.61871 0.861964377 0)
(146.385142 0.876103496 0)
(146.153599 0.888360758 0)
(145.924185 0.900428661 0)
(145.696782 0.912728134 0)
(145.471371 0.924807011 0)
(145.248185 0.935867005 0)
(145.0277 0.945185802 0)
(144.810531 0.952319785 0)
(144.597313 0.957101067 0)
(144.388622 0.959520267 0)
(144.18494 0.959595984 0)
(143.986669 0.95729355 0)
(143.794157 0.952505699 0)
(143.60772 0.945073976 0)
(143.427658 0.934821181 0)
(143.254266 0.921575199 0)
(143.08783 0.905179154 0)
(142.928628 0.885492314 0)
(142.776939 0.862388183 0)
(142.633045 0.835753961 0)
(142.49724 0.805492686 0)
(142.369833 0.771527414 0)
(142.251159 0.73380617 0)
(142.141583 0.692306789 0)
(142.041513 0.64704084 0)
(141.951416 0.598055606 0)
(141.871849 0.545427586 0)
(141.803588 0.489243742 0)
(141.747461 0.429479094 0)
(141.70406 0.366023544 0)
(141.673725 0.298698711 0)
(141.656529 0.227374277 0)
(141.652442 0.152175427 0)
(141.660746 0.0735089235 0)
(141.680199 -0.00665177546 0)
(141.716289 -0.0854513914 0)
(141.772123 -0.164776784 0)
(141.846836 -0.245718573 0)
(141.939346 -0.327970544 0)
(142.049808 -0.411070054 0)
(142.178359 -0.494564178 0)
(142.324803 -0.57786516 0)
(142.488834 -0.660289497 0)
(142.670049 -0.741111775 0)
(142.867865 -0.819571035 0)
(143.081505 -0.894874422 0)
(143.31001 -0.966212097 0)
(143.552235 -1.03277843 0)
(143.806865 -1.09379769 0)
(144.072429 -1.14855236 0)
(144.347316 -1.19641039 0)
(144.629799 -1.23684845 0)
(144.918059 -1.26946902 0)
(145.210219 -1.29401116 0)
(145.504367 -1.31035502 0)
(145.798605 -1.31852139 0)
(146.091073 -1.31866668 0)
(146.37999 -1.31107439 0)
(146.66368 -1.29614313 0)
(146.940605 -1.27437181 0)
(147.20938 -1.24634242 0)
(147.468789 -1.21270129 0)
(147.717801 -1.17413951 0)
(147.955562 -1.13137358 0)
(148.181404 -1.08512699 0)
(148.394835 -1.03611347 0)
(148.595531 -0.985022446 0)
(148.783321 -0.932506749 0)
(148.958177 -0.879172868 0)
(149.120197 -0.82557348 0)
(149.269588 -0.772202421 0)
(149.40665 -0.719491997 0)
(149.531765 -0.667812575 0)
(149.645377 -0.617474094 0)
(149.747977 -0.568727926 0)
(149.840093 -0.521767928 0)
(149.922278 -0.47673241 0)
(149.995111 -0.433710004 0)
(150.059184 -0.392749249 0)
(150.115096 -0.353866062 0)
(150.163438 -0.317045247 0)
(150.204796 -0.282242193 0)
(150.239754 -0.249392233 0)
(150.268888 -0.218423807 0)
(150.292763 -0.189265672 0)
(150.311918 -0.161848337 0)
(150.326874 -0.136109378 0)
(150.338137 -0.112005434 0)
(150.34618 -0.0895252192 0)
(150.351426 -0.0686997095 0)
(150.354214 -0.0495990662 0)
(150.354763 -0.0323023402 0)
(150.353064 -0.0168271409 0)
(150.349014 -0.00295591189 0)
(150.34345 0.00968230272 0)
(150.336662 0.0209680796 0)
(150.328499 0.0309345312 0)
(150.318958 0.039739472 0)
(150.308221 0.0475102019 0)
(150.296451 0.0543483903 0)
(150.283783 0.060348082 0)
(150.270349 0.0655951589 0)
(150.256274 0.0701658715 0)
(150.241675 0.0741272509 0)
(150.226658 0.077537729 0)
(150.21132 0.0804477632 0)
(150.195746 0.0829007634 0)
(150.180011 0.0849343623 0)
(150.164183 0.0865818451 0)
(150.148315 0.0878734666 0)
(150.132457 0.088837452 0)
(150.11665 0.0895005937 0)
(150.100931 0.0898885123 0)
(150.08533 0.0900256944 0)
(150.069875 0.089935425 0)
(150.054589 0.0896396712 0)
(150.039495 0.0891589568 0)
(150.024613 0.0885122371 0)
(150.009958 0.0877167932 0)
(149.995546 0.0867881626 0)
(149.981392 0.0857401192 0)
(149.967506 0.0845847229 0)
(149.953898 0.0833324426 0)
(149.940579 0.0819923299 0)
(149.927553 0.0805722198 0)
(149.914828 0.0790789822 0)
(149.902406 0.0775187538 0)
(149.890293 0.0758971186 0)
(149.87849 0.0742192176 0)
(149.867 0.0724897626 0)
(149.855828 0.0707130384 0)
(149.844971 0.0688923528 0)
(149.834451 0.0670314378 0)
(149.82422 0.0651255604 0)
(149.814483 0.0631978742 0)
(149.804594 0.0611264467 0)
(149.797012 0.0593868516 0)
(149.781074 0.055773806 0)
(150.421833 -0.036616839 0)
(150.437148 -0.115272669 0)
(150.478442 -0.190277197 0)
(150.542587 -0.245221051 0)
(150.621555 -0.265952053 0)
(150.704826 -0.246556476 0)
(150.782553 -0.189326688 0)
(150.846532 -0.102004154 0)
(150.891166 0.00541299682 0)
(150.912658 0.119256732 0)
(150.908659 0.225818524 0)
(150.883295 0.314876823 0)
(150.840858 0.37967993 0)
(150.786413 0.416863708 0)
(150.725547 0.426191404 0)
(150.663695 0.40979277 0)
(150.605827 0.371259486 0)
(150.556292 0.315168439 0)
(150.51865 0.247374357 0)
(150.495301 0.175749026 0)
(150.486861 0.110468043 0)
(150.491464 0.0630546777 0)
(150.504577 0.0441732799 0)
(150.519435 0.0609321168 0)
(150.527928 0.114528339 0)
(150.521811 0.199906549 0)
(150.494132 0.307253438 0)
(150.440451 0.424106357 0)
(150.359351 0.537789399 0)
(150.252325 0.637482677 0)
(150.123174 0.715421488 0)
(149.97718 0.767235251 0)
(149.820269 0.79168839 0)
(149.658352 0.790152086 0)
(149.496874 0.766099153 0)
(149.340495 0.72478399 0)
(149.192811 0.673097086 0)
(149.056013 0.619419189 0)
(148.930507 0.573207875 0)
(148.814614 0.544093503 0)
(148.704488 0.540453267 0)
(148.594415 0.567712685 0)
(148.477541 0.626861278 0)
(148.346975 0.713739503 0)
(148.197085 0.819506347 0)
(148.024638 0.932343881 0)
(147.829439 1.04000626 0)
(147.614243 1.13247677 0)
(147.38396 1.20392465 0)
(147.144421 1.25339032 0)
(146.901086 1.28408012 0)
(146.658079 1.30163808 0)
(146.417774 1.31208321 0)
(146.180958 1.32012898 0)
(145.947377 1.32834743 0)
(145.716398 1.33724331 0)
(145.487543 1.34595427 0)
(145.260746 1.35313541 0)
(145.036359 1.35764751 0)
(144.814998 1.35886942 0)
(144.597347 1.35666748 0)
(144.384023 1.35118088 0)
(144.175521 1.34259302 0)
(143.972226 1.3309914 0)
(143.774459 1.31633407 0)
(143.58251 1.29848457 0)
(143.396665 1.2772656 0)
(143.217212 1.25249748 0)
(143.044443 1.22401299 0)
(142.878648 1.19165613 0)
(142.720128 1.15527669 0)
(142.569189 1.11472787 0)
(142.426158 1.06986855 0)
(142.291386 1.02056869 0)
(142.165256 0.966715095 0)
(142.048186 0.908215972 0)
(141.940645 0.84500318 0)
(141.843149 0.777030982 0)
(141.756277 0.704263849 0)
(141.680659 0.626651985 0)
(141.616888 0.544004891 0)
(141.565375 0.456077694 0)
(141.526435 0.362689629 0)
(141.500492 0.263891846 0)
(141.488145 0.160079402 0)
(141.490897 0.0519146296 0)
(141.511112 -0.0597984152 0)
(141.548444 -0.172616026 0)
(141.602435 -0.287116952 0)
(141.67466 -0.403786859 0)
(141.765674 -0.52211677 0)
(141.875669 -0.64141495 0)
(142.00485 -0.760997992 0)
(142.153251 -0.880032641 0)
(142.32071 -0.997542122 0)
(142.506898 -1.1124634 0)
(142.711281 -1.22366954 0)
(142.933107 -1.32999108 0)
(143.171399 -1.4302479 0)
(143.424954 -1.52328326 0)
(143.692356 -1.60799794 0)
(143.971985 -1.68338466 0)
(144.26204 -1.74856102 0)
(144.560566 -1.802799 0)
(144.865489 -1.84554948 0)
(145.174654 -1.8764603 0)
(145.48587 -1.8953868 0)
(145.796956 -1.90239441 0)
(146.105783 -1.8977531 0)
(146.410324 -1.88192437 0)
(146.708684 -1.8555417 0)
(146.999139 -1.81938593 0)
(147.280157 -1.77435701 0)
(147.550414 -1.7214438 0)
(147.808809 -1.66169354 0)
(148.05446 -1.5961822 0)
(148.286701 -1.52598694 0)
(148.505079 -1.4521616 0)
(148.709332 -1.37571571 0)
(148.899374 -1.29759742 0)
(149.07528 -1.21868028 0)
(149.237262 -1.13975402 0)
(149.385652 -1.06151886 0)
(149.520874 -0.984582983 0)
(149.643436 -0.909462727 0)
(149.753905 -0.836585006 0)
(149.852891 -0.766291209 0)
(149.941042 -0.698841943 0)
(150.019022 -0.634423183 0)
(150.087501 -0.573154442 0)
(150.147151 -0.515097701 0)
(150.19864 -0.460266735 0)
(150.242624 -0.408636238 0)
(150.279744 -0.360149355 0)
(150.310611 -0.314724452 0)
(150.335808 -0.272264541 0)
(150.355897 -0.23267055 0)
(150.371405 -0.195848405 0)
(150.382824 -0.161706391 0)
(150.3906 -0.130157655 0)
(150.395124 -0.101127719 0)
(150.396723 -0.0745449153 0)
(150.395682 -0.0503232253 0)
(150.39228 -0.0283614276 0)
(150.386843 -0.00852014118 0)
(150.379833 0.00943890343 0)
(150.371415 0.0257776799 0)
(150.361619 0.0403982995 0)
(150.350666 0.0533336197 0)
(150.338662 0.0647448288 0)
(150.325724 0.0747754342 0)
(150.311973 0.0835485057 0)
(150.29753 0.0911814171 0)
(150.282504 0.0977841259 0)
(150.266998 0.103456763 0)
(150.25111 0.108289703 0)
(150.234928 0.112364236 0)
(150.218531 0.115753201 0)
(150.201992 0.118521685 0)
(150.185376 0.120727879 0)
(150.16874 0.122424002 0)
(150.152133 0.123657188 0)
(150.135598 0.124470251 0)
(150.119173 0.124902302 0)
(150.102891 0.124989227 0)
(150.08678 0.12476405 0)
(150.070864 0.124257205 0)
(150.055164 0.12349673 0)
(150.039699 0.122508406 0)
(150.024485 0.121315852 0)
(150.009533 0.11994061 0)
(149.994858 0.118402212 0)
(149.980468 0.116718267 0)
(149.966372 0.114904551 0)
(149.952577 0.112975121 0)
(149.93909 0.110942437 0)
(149.925914 0.108817464 0)
(149.913054 0.106609825 0)
(149.900512 0.10432794 0)
(149.88829 0.101979122 0)
(149.87639 0.0995696398 0)
(149.864813 0.0971046725 0)
(149.853561 0.0945883361 0)
(149.842631 0.0920228581 0)
(149.832041 0.0894109453 0)
(149.821734 0.086742444 0)
(149.811918 0.0840497 0)
(149.801878 0.0811586974 0)
(149.794182 0.0787520568 0)
(149.777543 0.0738576919 0)
(150.422445 -0.0445878288 0)
(150.439962 -0.140262806 0)
(150.482618 -0.232276268 0)
(150.54646 -0.301582412 0)
(150.623892 -0.331719925 0)
(150.705099 -0.315473461 0)
(150.780871 -0.254895435 0)
(150.843154 -0.158761941 0)
(150.88557 -0.0405616827 0)
(150.907495 0.0837274622 0)
(150.907347 0.201545931 0)
(150.885709 0.301405195 0)
(150.846606 0.375154686 0)
(150.795212 0.418753854 0)
(150.736976 0.431675949 0)
(150.677249 0.416041849 0)
(150.620957 0.375633682 0)
(150.572398 0.315354677 0)
(150.53506 0.241571051 0)
(150.511303 0.162974118 0)
(150.501837 0.0909302738 0)
(150.505219 0.038416659 0)
(150.517399 0.0174242989 0)
(150.531537 0.0359673319 0)
(150.53923 0.0962470658 0)
(150.532517 0.193648973 0)
(150.505047 0.317496467 0)
(150.452717 0.453643206 0)
(150.374081 0.587421343 0)
(150.270328 0.706067139 0)
(150.144824 0.800216106 0)
(150.002396 0.864423571 0)
(149.848594 0.896941128 0)
(149.689066 0.899113411 0)
(149.529098 0.874755929 0)
(149.373278 0.829746311 0)
(149.225205 0.771852869 0)
(149.087174 0.710607198 0)
(148.959805 0.656889108 0)
(148.841689 0.621939369 0)
(148.729225 0.615745863 0)
(148.616892 0.645053204 0)
(148.498015 0.711534493 0)
(148.365914 0.810803326 0)
(148.215142 0.932797189 0)
(148.042509 1.06365272 0)
(147.847639 1.18867573 0)
(147.63292 1.29557721 0)
(147.40283 1.3769873 0)
(147.162852 1.43147526 0)
(146.918276 1.4628346 0)
(146.673253 1.47802018 0)
(146.43034 1.48457577 0)
(146.190568 1.48847487 0)
(145.953915 1.49300296 0)
(145.719913 1.49880497 0)
(145.48816 1.5047593 0)
(145.258597 1.50911491 0)
(145.031547 1.51039175 0)
(144.807581 1.50779839 0)
(144.587349 1.5011991 0)
(144.371449 1.49083325 0)
(144.160366 1.47701085 0)
(143.954476 1.45992259 0)
(143.754091 1.43959091 0)
(143.559488 1.41591378 0)
(143.370939 1.38873438 0)
(143.18872 1.35789147 0)
(143.013111 1.32323788 0)
(142.844394 1.2846373 0)
(142.682862 1.24195486 0)
(142.528822 1.1950516 0)
(142.382597 1.1437854 0)
(142.244541 1.08801618 0)
(142.11504 1.02761205 0)
(141.994519 0.962454273 0)
(141.883444 0.892439754 0)
(141.782328 0.817480601 0)
(141.69173 0.737499158 0)
(141.612248 0.652421973 0)
(141.544499 0.562173335 0)
(141.4891 0.466739176 0)
(141.446743 0.36626896 0)
(141.418179 0.261073136 0)
(141.404081 0.151507799 0)
(141.404126 0.03789205 0)
(141.420046 -0.0796246976 0)
(141.453312 -0.200929544 0)
(141.504842 -0.325182716 0)
(141.575102 -0.451956474 0)
(141.664464 -0.58083438 0)
(141.773366 -0.711136978 0)
(141.902162 -0.842038873 0)
(142.05101 -0.972588915 0)
(142.219875 -1.10169948 0)
(142.408526 -1.22817249 0)
(142.616506 -1.35072593 0)
(142.843111 -1.46801836 0)
(143.087378 -1.57868141 0)
(143.348082 -1.6813592 0)
(143.62374 -1.77475186 0)
(143.912626 -1.85766086 0)
(144.212791 -1.92903313 0)
(144.5221 -1.98800061 0)
(144.838273 -2.03391231 0)
(145.158934 -2.06635714 0)
(145.481662 -2.08517633 0)
(145.804053 -2.09046524 0)
(146.123766 -2.08256504 0)
(146.438581 -2.06204516 0)
(146.746438 -2.02967785 0)
(147.045478 -1.98640681 0)
(147.334067 -1.9333114 0)
(147.610816 -1.87156898 0)
(147.87459 -1.802417 0)
(148.124506 -1.7271168 0)
(148.359927 -1.64692055 0)
(148.580448 -1.56304239 0)
(148.785877 -1.47663433 0)
(148.976214 -1.38876734 0)
(149.151628 -1.30041746 0)
(149.312429 -1.21245673 0)
(149.459048 -1.12564844 0)
(149.59201 -1.04064607 0)
(149.711919 -0.957995536 0)
(149.819431 -0.878139783 0)
(149.915237 -0.801425526 0)
(150.000053 -0.728111605 0)
(150.074602 -0.658377987 0)
(150.139608 -0.592334886 0)
(150.195792 -0.530031759 0)
(150.243853 -0.471467262 0)
(150.284466 -0.416600163 0)
(150.318283 -0.365357708 0)
(150.345933 -0.317641571 0)
(150.368015 -0.273333324 0)
(150.385086 -0.232295684 0)
(150.397678 -0.194376589 0)
(150.406303 -0.15941683 0)
(150.411442 -0.127250847 0)
(150.413553 -0.0977213182 0)
(150.413069 -0.0706993526 0)
(150.410364 -0.0460728511 0)
(150.405722 -0.0237277659 0)
(150.399315 -0.00358679591 0)
(150.391415 0.0145097343 0)
(150.381905 0.0307475964 0)
(150.371058 0.0452869837 0)
(150.359074 0.0582199222 0)
(150.346077 0.0696577757 0)
(150.332203 0.0797218475 0)
(150.317583 0.0885290424 0)
(150.302337 0.096190976 0)
(150.286576 0.102813076 0)
(150.270399 0.108493006 0)
(150.253904 0.113319969 0)
(150.237174 0.11737482 0)
(150.220287 0.120730535 0)
(150.203312 0.123452838 0)
(150.186308 0.125600954 0)
(150.169329 0.127228449 0)
(150.152417 0.128384034 0)
(150.135614 0.129112254 0)
(150.118951 0.129454032 0)
(150.102457 0.129447062 0)
(150.086159 0.129126076 0)
(150.070076 0.128523039 0)
(150.054226 0.12766728 0)
(150.038628 0.126585598 0)
(150.023295 0.125302357 0)
(150.008239 0.123839569 0)
(149.993471 0.122217006 0)
(149.979 0.12045231 0)
(149.964833 0.118561131 0)
(149.950976 0.116557287 0)
(149.937436 0.114452925 0)
(149.924213 0.112258692 0)
(149.911313 0.109983909 0)
(149.898736 0.107636713 0)
(149.886484 0.105224171 0)
(149.874556 0.102752337 0)
(149.862952 0.100226215 0)
(149.851674 0.097649825 0)
(149.840716 0.0950253464 0)
(149.830095 0.0923560019 0)
(149.819752 0.0896318316 0)
(149.809892 0.0868901445 0)
(149.799828 0.083954506 0)
(149.792097 0.0815377549 0)
(149.775754 0.0766475089 0)
(150.422338 -0.0569415509 0)
(150.439425 -0.179973395 0)
(150.482661 -0.299702431 0)
(150.549034 -0.391157168 0)
(150.631078 -0.432503481 0)
(150.718334 -0.41402162 0)
(150.80048 -0.338145152 0)
(150.868297 -0.216071199 0)
(150.914354 -0.0645852595 0)
(150.93717 0.0974798306 0)
(150.936487 0.250661438 0)
(150.91255 0.379889044 0)
(150.869515 0.475390716 0)
(150.813032 0.532194486 0)
(150.749195 0.54965438 0)
(150.68405 0.530422152 0)
(150.623219 0.479199548 0)
(150.571639 0.40209136 0)
(150.533326 0.307066905 0)
(150.510937 0.205102766 0)
(150.505115 0.110710543 0)
(150.513726 0.0406910157 0)
(150.531885 0.0112309094 0)
(150.552752 0.0329933378 0)
(150.568664 0.108908775 0)
(150.570579 0.232427187 0)
(150.550474 0.38969833 0)
(150.503172 0.562699584 0)
(150.426806 0.732745255 0)
(150.322622 0.88360907 0)
(150.194389 1.00346526 0)
(150.047573 1.08551114 0)
(149.888486 1.12760664 0)
(149.72358 1.13144131 0)
(149.558912 1.10171613 0)
(149.399751 1.04564544 0)
(149.25021 0.972799054 0)
(149.112845 0.895021831 0)
(148.988229 0.825991475 0)
(148.874653 0.780004572 0)
(148.76807 0.769881918 0)
(148.662397 0.804353649 0)
(148.550252 0.885675494 0)
(148.42412 1.00835343 0)
(148.277721 1.15964762 0)
(148.107246 1.32199648 0)
(147.912074 1.47681761 0)
(147.694753 1.60860493 0)
(147.460245 1.70808204 0)
(147.21467 1.77346678 0)
(146.963947 1.80956221 0)
(146.712731 1.82516335 0)
(146.463888 1.82982538 0)
(146.218572 1.83114412 0)
(145.976739 1.83333705 0)
(145.737818 1.8372866 0)
(145.501288 1.84162831 0)
(145.266992 1.84418041 0)
(145.035187 1.84308526 0)
(144.806413 1.83734757 0)
(144.581306 1.82680374 0)
(144.36045 1.81177372 0)
(144.144316 1.79267676 0)
(143.93326 1.76978748 0)
(143.727568 1.74316883 0)
(143.527491 1.71272313 0)
(143.333275 1.67827734 0)
(143.145175 1.63964571 0)
(142.963451 1.5966537 0)
(142.788371 1.54913465 0)
(142.62022 1.49691845 0)
(142.459301 1.43982466 0)
(142.305944 1.37766358 0)
(142.160513 1.31024254 0)
(142.023413 1.23737302 0)
(141.895092 1.15887615 0)
(141.776044 1.07458599 0)
(141.666812 0.98435082 0)
(141.567984 0.888033683 0)
(141.480189 0.785514455 0)
(141.404083 0.676694712 0)
(141.340337 0.561514742 0)
(141.289634 0.439972006 0)
(141.252629 0.312078343 0)
(141.229935 0.177898107 0)
(141.222869 0.0376397512 0)
(141.234656 -0.107663996 0)
(141.26447 -0.257167524 0)
(141.312553 -0.410638334 0)
(141.379954 -0.567621516 0)
(141.467475 -0.727379723 0)
(141.575742 -0.889002048 0)
(141.705252 -1.05143506 0)
(141.856333 -1.21346528 0)
(142.029108 -1.37371354 0)
(142.223467 -1.5306582 0)
(142.439039 -1.68266688 0)
(142.675159 -1.82803257 0)
(142.930853 -1.96501802 0)
(143.204827 -2.09190665 0)
(143.495469 -2.20705701 0)
(143.800867 -2.30895849 0)
(144.118834 -2.39628568 0)
(144.446952 -2.46794811 0)
(144.78262 -2.52313212 0)
(145.12312 -2.56133182 0)
(145.465681 -2.582367 0)
(145.807549 -2.58638684 0)
(146.146053 -2.57385913 0)
(146.478673 -2.5455466 0)
(146.803089 -2.50247189 0)
(147.117229 -2.44587445 0)
(147.419296 -2.37716201 0)
(147.707794 -2.29785987 0)
(147.981529 -2.20956079 0)
(148.239608 -2.11387787 0)
(148.481427 -2.01240202 0)
(148.706651 -1.90666575 0)
(148.915187 -1.79811345 0)
(149.107156 -1.68807868 0)
(149.282866 -1.57776818 0)
(149.442776 -1.46825205 0)
(149.587468 -1.36045947 0)
(149.717622 -1.25517911 0)
(149.833987 -1.15306343 0)
(149.93736 -1.05463589 0)
(150.028564 -0.960299947 0)
(150.108439 -0.870349253 0)
(150.177819 -0.784978581 0)
(150.237526 -0.704296021 0)
(150.288361 -0.62833657 0)
(150.331096 -0.557073951 0)
(150.366468 -0.490429294 0)
(150.395185 -0.428280284 0)
(150.417909 -0.370473454 0)
(150.435271 -0.316835659 0)
(150.447867 -0.267179933 0)
(150.456252 -0.22131192 0)
(150.460933 -0.179049523 0)
(150.462352 -0.140240789 0)
(150.460856 -0.104743493 0)
(150.456719 -0.0724032466 0)
(150.450206 -0.0430573611 0)
(150.441549 -0.0165308367 0)
(150.431302 0.0073496015 0)
(150.419972 0.0286928156 0)
(150.407447 0.0477539459 0)
(150.393834 0.0647270279 0)
(150.379296 0.0797559082 0)
(150.363977 0.0929954319 0)
(150.347996 0.104599478 0)
(150.331467 0.114711 0)
(150.314495 0.123463537 0)
(150.297174 0.130981848 0)
(150.279589 0.137381507 0)
(150.261817 0.142768751 0)
(150.243928 0.147240679 0)
(150.225984 0.150885684 0)
(150.208043 0.153783965 0)
(150.190154 0.156008107 0)
(150.172363 0.157623752 0)
(150.154707 0.158690293 0)
(150.137224 0.159261556 0)
(150.119941 0.159386422 0)
(150.102884 0.159109382 0)
(150.086075 0.158471003 0)
(150.069533 0.157508312 0)
(150.053271 0.156255117 0)
(150.037303 0.154742261 0)
(150.021639 0.152997837 0)
(150.006287 0.151047365 0)
(149.991253 0.148913955 0)
(149.976544 0.146618452 0)
(149.962163 0.144179578 0)
(149.948113 0.141614066 0)
(149.934397 0.138936789 0)
(149.921016 0.136160883 0)
(149.90797 0.133297861 0)
(149.89526 0.13035772 0)
(149.882886 0.127349021 0)
(149.870846 0.124278957 0)
(149.85914 0.121153346 0)
(149.847767 0.117976804 0)
(149.836719 0.114751834 0)
(149.826013 0.111482559 0)
(149.815584 0.108157489 0)
(149.80564 0.104823656 0)
(149.795449 0.101267722 0)
(149.787622 0.0983571815 0)
(149.770724 0.0924654322 0)
(150.422536 -0.0683806513 0)
(150.440346 -0.21622666 0)
(150.484509 -0.360965578 0)
(150.551715 -0.473485929 0)
(150.634316 -0.528192329 0)
(150.721978 -0.513296343 0)
(150.804754 -0.430868799 0)
(150.873861 -0.293336207 0)
(150.922694 -0.120245324 0)
(150.948122 0.0655058406 0)
(150.949278 0.24188591 0)
(150.926552 0.391577401 0)
(150.884641 0.502980978 0)
(150.829005 0.570221461 0)
(150.76568 0.592406252 0)
(150.700727 0.572349323 0)
(150.639799 0.515207159 0)
(150.587879 0.427795884 0)
(150.549055 0.319158387 0)
(150.526147 0.201876752 0)
(150.520167 0.0927283118 0)
(150.530097 0.0111222684 0)
(150.55171 -0.0247631522 0)
(150.576128 -0.00137102249 0)
(150.594896 0.0845453882 0)
(150.598643 0.226229589 0)
(150.580446 0.408265638 0)
(150.535581 0.609790912 0)
(150.462008 0.808975317 0)
(150.360676 0.986749124 0)
(150.235066 1.12908263 0)
(150.090415 1.22778277 0)
(149.932898 1.28011864 0)
(149.768913 1.28784894 0)
(149.604526 1.25624221 0)
(149.445049 1.19347465 0)
(149.294687 1.11045382 0)
(149.156163 1.0207517 0)
(149.030314 0.940122513 0)
(148.915678 0.885150206 0)
(148.808315 0.870879533 0)
(148.702095 0.907790519 0)
(148.589524 0.998966022 0)
(148.462971 1.13848148 0)
(148.316055 1.31182575 0)
(148.144836 1.498588 0)
(147.948521 1.67686079 0)
(147.729473 1.82812338 0)
(147.492525 1.94110599 0)
(147.243778 2.01344539 0)
(146.989252 2.05072469 0)
(146.733772 2.06343491 0)
(146.480399 2.06309766 0)
(146.230454 2.05894944 0)
(145.984007 2.05617151 0)
(145.740545 2.05589468 0)
(145.499567 2.05649449 0)
(145.26091 2.05532752 0)
(145.024822 2.05013474 0)
(144.791833 2.03971433 0)
(144.562571 2.02389508 0)
(144.337608 2.00311303 0)
(144.117397 1.97793679 0)
(143.902272 1.94876176 0)
(143.692487 1.91572214 0)
(143.488264 1.87875034 0)
(143.289815 1.83768117 0)
(143.097364 1.79232964 0)
(142.911146 1.74252072 0)
(142.731408 1.68808487 0)
(142.55842 1.62884295 0)
(142.392472 1.56459682 0)
(142.233891 1.49512976 0)
(142.083038 1.42021386 0)
(141.94032 1.33961898 0)
(141.806187 1.25312049 0)
(141.68114 1.16050512 0)
(141.565729 1.0615753 0)
(141.46055 0.956153347 0)
(141.366251 0.844086636 0)
(141.283523 0.725255301 0)
(141.2131 0.599585274 0)
(141.15576 0.467069361 0)
(141.112339 0.327785827 0)
(141.083741 0.181951588 0)
(141.07073 0.0299726449 0)
(141.076545 -0.12813818 0)
(141.100772 -0.292002997 0)
(141.143983 -0.461008029 0)
(141.20725 -0.634536518 0)
(141.291511 -0.811828826 0)
(141.397606 -0.991910419 0)
(141.526253 -1.17359144 0)
(141.677995 -1.35547324 0)
(141.853147 -1.53595496 0)
(142.051769 -1.71325176 0)
(142.27362 -1.88542503 0)
(142.518117 -2.05042344 0)
(142.784309 -2.20613604 0)
(143.070861 -2.35045636 0)
(143.376043 -2.48135455 0)
(143.697754 -2.5969527 0)
(144.033545 -2.69559881 0)
(144.380673 -2.77593414 0)
(144.736165 -2.83694907 0)
(145.096897 -2.87802361 0)
(145.459679 -2.89894977 0)
(145.821345 -2.8999348 0)
(146.178838 -2.8815853 0)
(146.529291 -2.84487423 0)
(146.870089 -2.79109348 0)
(147.198926 -2.7217961 0)
(147.51384 -2.63873212 0)
(147.813229 -2.54378236 0)
(148.095862 -2.43889396 0)
(148.360863 -2.32602081 0)
(148.607695 -2.20707099 0)
(148.836131 -2.08386309 0)
(149.046218 -1.95809166 0)
(149.238238 -1.83130198 0)
(149.412673 -1.70487377 0)
(149.570162 -1.5800126 0)
(149.711468 -1.4577482 0)
(149.837446 -1.33893811 0)
(149.949008 -1.22427573 0)
(150.047107 -1.11430142 0)
(150.132704 -1.00941585 0)
(150.206758 -0.909894976 0)
(150.270212 -0.815905554 0)
(150.323976 -0.727520351 0)
(150.368927 -0.64473251 0)
(150.405898 -0.567469279 0)
(150.435676 -0.495605547 0)
(150.458998 -0.428976872 0)
(150.476552 -0.367389347 0)
(150.488975 -0.310627022 0)
(150.496849 -0.258462785 0)
(150.500698 -0.210664739 0)
(150.500983 -0.166994214 0)
(150.498139 -0.127208928 0)
(150.492624 -0.0910627488 0)
(150.484893 -0.0583055967 0)
(150.475348 -0.0286956822 0)
(150.464323 -0.00199837147 0)
(150.452212 0.0220584819 0)
(150.438784 0.0436505368 0)
(150.424206 0.0629025308 0)
(150.408682 0.0799939802 0)
(150.392366 0.0950926462 0)
(150.375394 0.108355909 0)
(150.357889 0.119937309 0)
(150.339956 0.129982595 0)
(150.321697 0.138628456 0)
(150.303199 0.146002587 0)
(150.284544 0.152223515 0)
(150.265805 0.157400523 0)
(150.247047 0.161633872 0)
(150.228326 0.165015272 0)
(150.209694 0.167628435 0)
(150.191193 0.169549638 0)
(150.17286 0.170848306 0)
(150.154727 0.171587578 0)
(150.136821 0.171824867 0)
(150.119163 0.171612353 0)
(150.101774 0.170997439 0)
(150.084669 0.170023152 0)
(150.067863 0.16872851 0)
(150.051366 0.167148845 0)
(150.035188 0.165316095 0)
(150.019337 0.163259062 0)
(150.00382 0.161003647 0)
(149.988642 0.158573066 0)
(149.973808 0.155988058 0)
(149.959318 0.153267082 0)
(149.945176 0.150426508 0)
(149.931383 0.147480805 0)
(149.917936 0.144442704 0)
(149.904837 0.141323364 0)
(149.892082 0.138132495 0)
(149.879671 0.13487847 0)
(149.867599 0.131568401 0)
(149.855863 0.128208138 0)
(149.844462 0.124802483 0)
(149.833386 0.121354213 0)
(149.82265 0.117868369 0)
(149.812188 0.114333349 0)
(149.802206 0.110802705 0)
(149.791993 0.107050221 0)
(149.784138 0.10400898 0)
(149.767494 0.0978792734 0)
(150.422713 -0.0800821569 0)
(150.441268 -0.253742901 0)
(150.486853 -0.424732047 0)
(150.556346 -0.558756416 0)
(150.641989 -0.62538531 0)
(150.733061 -0.610408121 0)
(150.819111 -0.515939224 0)
(150.890814 -0.356298676 0)
(150.940498 -0.154367642 0)
(150.965578 0.0626764046 0)
(150.967826 0.269295934 0)
(150.945771 0.445087025 0)
(150.903403 0.576302203 0)
(150.846553 0.655954961 0)
(150.781685 0.682856714 0)
(150.715287 0.660149352 0)
(150.653464 0.593749297 0)
(150.601621 0.491562723 0)
(150.564161 0.364128782 0)
(150.54404 0.226159982 0)
(150.541952 0.0972123005 0)
(150.555461 0.000216562563 0)
(150.580691 -0.0432960988 0)
(150.608602 -0.0182268237 0)
(150.631546 0.0800806607 0)
(150.641246 0.2444361 0)
(150.628762 0.456717287 0)
(150.588254 0.692552479 0)
(150.517532 0.926379987 0)
(150.417627 1.1357329 0)
(150.292187 1.30401215 0)
(150.146723 1.42145984 0)
(149.987766 1.48471918 0)
(149.822109 1.49568736 0)
(149.656214 1.46036213 0)
(149.495752 1.38814006 0)
(149.345169 1.29162669 0)
(149.207224 1.1866036 0)
(149.082572 1.09152063 0)
(148.96949 1.02591699 0)
(148.863838 1.00761291 0)
(148.759366 1.04912408 0)
(148.648444 1.15428004 0)
(148.523208 1.31628631 0)
(148.376936 1.51821854 0)
(148.205345 1.73618878 0)
(148.00741 1.9444996 0)
(147.785432 2.12135079 0)
(147.544342 2.25337317 0)
(147.290451 2.3376061 0)
(147.030045 2.38042882 0)
(146.768229 2.39404919 0)
(146.508317 2.39198029 0)
(146.251826 2.38514 0)
(145.998952 2.37973718 0)
(145.749245 2.37723294 0)
(145.502214 2.37582661 0)
(145.257681 2.37248022 0)
(145.015865 2.36457176 0)
(144.77727 2.35070194 0)
(144.542497 2.33068003 0)
(144.312092 2.30503695 0)
(144.08648 2.2744695 0)
(143.865958 2.23947714 0)
(143.65074 2.20025251 0)
(143.441 2.15674652 0)
(143.236905 2.10878818 0)
(143.038632 2.05617528 0)
(142.846372 1.99870968 0)
(142.660333 1.93619301 0)
(142.480749 1.86840995 0)
(142.307888 1.79511797 0)
(142.142053 1.71604857 0)
(141.9836 1.63091636 0)
(141.832933 1.53942988 0)
(141.690516 1.44130072 0)
(141.55687 1.33624996 0)
(141.432573 1.22401304 0)
(141.318259 1.10434414 0)
(141.214621 0.977021747 0)
(141.122402 0.84185617 0)
(141.0424 0.698700152 0)
(140.97547 0.547461925 0)
(140.922525 0.388118601 0)
(140.884556 0.220723657 0)
(140.862657 0.0454086693 0)
(140.86065 -0.137417248 0)
(140.878089 -0.327279857 0)
(140.915346 -0.523610227 0)
(140.973619 -0.725687658 0)
(141.054092 -0.932589272 0)
(141.157861 -1.14316151 0)
(141.285899 -1.35600959 0)
(141.439002 -1.56948555 0)
(141.617737 -1.78168535 0)
(141.822379 -1.99046589 0)
(142.052853 -2.19348036 0)
(142.30868 -2.38822929 0)
(142.588935 -2.57212696 0)
(142.892217 -2.7425813 0)
(143.216639 -2.89708428 0)
(143.559844 -3.0333076 0)
(143.91904 -3.14919815 0)
(144.29106 -3.24306643 0)
(144.672446 -3.31366115 0)
(145.059549 -3.36022397 0)
(145.44864 -3.3825199 0)
(145.836019 -3.38084137 0)
(146.218135 -3.35598603 0)
(146.591674 -3.30921111 0)
(146.953651 -3.24216872 0)
(147.30147 -3.15682786 0)
(147.632965 -3.05538913 0)
(147.946416 -2.940198 0)
(148.240555 -2.81366199 0)
(148.514543 -2.67817546 0)
(148.76794 -2.53605497 0)
(149.000665 -2.38948691 0)
(149.212949 -2.2404877 0)
(149.405283 -2.09087614 0)
(149.578373 -1.94225718 0)
(149.733085 -1.79601533 0)
(149.87041 -1.65331629 0)
(149.991418 -1.51511487 0)
(150.097226 -1.38216802 0)
(150.188971 -1.25505098 0)
(150.267784 -1.13417539 0)
(150.334774 -1.0198084 0)
(150.391011 -0.912091702 0)
(150.437517 -0.811060188 0)
(150.475261 -0.716660044 0)