/*--------------------------------*- C++ -*----------------------------------*\
| =========                 |                                                 |
| \\      /  F ield         | OpenFOAM: The Open Source CFD Toolbox           |
|  \\    /   O peration     | Version:  v2012                                 |
|   \\  /    A nd           | Website:  www.openfoam.com                      |
|    \\/     M anipulation  |                                                 |
\*---------------------------------------------------------------------------*/
FoamFile
{
    version     2.0;
    format      ascii;
    class       volVectorField;
    location    "2.79";
    object      HbyA;
}
// * * * * * * * * * * * * * * * * * * * * * * * * * * * * * * * * * * * * * //

dimensions      [0 1 -1 0 0 0 0];


internalField   nonuniform List<vector> 
28416
(
(0.100001735 -1.17547099e-05 0)
(0.100015808 -3.74295297e-05 0)
(0.100044038 -6.20677319e-05 0)
(0.100084492 -7.94532805e-05 0)
(0.100131933 -8.40786657e-05 0)
(0.10018038 -7.37215462e-05 0)
(0.100224151 -4.94463929e-05 0)
(0.100257628 -1.42298591e-05 0)
(0.100278571 2.89217932e-05 0)
(0.100288627 7.53946025e-05 0)
(0.100287808 0.000118407685 0)
(0.100275691 0.000153966815 0)
(0.100254163 0.000179483186 0)
(0.10022597 0.000193482735 0)
(0.100194039 0.000195810903 0)
(0.100161267 0.000187383889 0)
(0.100130284 0.000169802012 0)
(0.10010332 0.000145123269 0)
(0.100082103 0.000115941082 0)
(0.100067677 8.56435276e-05 0)
(0.100060125 5.84849129e-05 0)
(0.100058322 3.91369781e-05 0)
(0.100059712 3.17037563e-05 0)
(0.100060511 3.87765472e-05 0)
(0.100056344 6.07025431e-05 0)
(0.100042911 9.54404798e-05 0)
(0.10001683 0.000139064033 0)
(0.0999762281 0.000186548347 0)
(0.0999207644 0.000232731279 0)
(0.0998514769 0.000273114835 0)
(0.0997704648 0.000304337065 0)
(0.0996804475 0.000324361578 0)
(0.0995843622 0.000332478305 0)
(0.0994850846 0.000329198304 0)
(0.0993852562 0.000316108258 0)
(0.099287164 0.000295721363 0)
(0.0991926072 0.000271326506 0)
(0.0991027094 0.000246797161 0)
(0.0990176795 0.00022629967 0)
(0.0989365805 0.000213865136 0)
(0.098857238 0.000212845764 0)
(0.0987764377 0.000225333247 0)
(0.0986904639 0.000251658639 0)
(0.0985958429 0.00029012834 0)
(0.0984900483 0.000337160499 0)
(0.098371964 0.000387902086 0)
(0.0982420092 0.000437223685 0)
(0.0981019262 0.000480812703 0)
(0.0979543074 0.000516022521 0)
(0.0978020027 0.000542215186 0)
(0.0976475702 0.000560521657 0)
(0.0974929095 0.000573156149 0)
(0.0973391426 0.000582567068 0)
(0.0971867266 0.000590726981 0)
(0.0970357078 0.000598761148 0)
(0.0968860023 0.00060694944 0)
(0.0967376041 0.000614991211 0)
(0.0965906776 0.000622355648 0)
(0.0964455457 0.000628562409 0)
(0.0963026188 0.000633316436 0)
(0.0961623176 0.000636505996 0)
(0.09602502 0.000638124748 0)
(0.0958910437 0.000638184962 0)
(0.0957606534 0.000636663493 0)
(0.0956340788 0.000633488919 0)
(0.0955115303 0.000628555777 0)
(0.095393209 0.000621746136 0)
(0.0952793099 0.000612945437 0)
(0.0951700231 0.000602049252 0)
(0.095065535 0.000588963891 0)
(0.0949660305 0.000573605115 0)
(0.0948716968 0.000555897802 0)
(0.0947827285 0.000535777357 0)
(0.094699331 0.000513192496 0)
(0.0946217251 0.00048810854 0)
(0.094550152 0.000460510645 0)
(0.0944848796 0.000430406399 0)
(0.0944262156 0.000397827153 0)
(0.094374525 0.000362823702 0)
(0.0943303154 0.000325453798 0)
(0.0942941388 0.000285700788 0)
(0.0942663911 0.000243491391 0)
(0.0942472954 0.000198706893 0)
(0.0942369006 0.000151260569 0)
(0.0942351874 0.00010123567 0)
(0.0942416807 4.89027815e-05 0)
(0.0942552432 -4.42521057e-06 0)
(0.0942784503 -5.68475566e-05 0)
(0.0943146484 -0.00010961862 0)
(0.0943632638 -0.000163463685 0)
(0.0944235793 -0.000218178775 0)
(0.0944957008 -0.000273455864 0)
(0.0945797228 -0.000328993408 0)
(0.094675518 -0.000384400205 0)
(0.0947828901 -0.000439221412 0)
(0.0949015771 -0.000492974361 0)
(0.0950311998 -0.000545152815 0)
(0.0951712522 -0.000595229405 0)
(0.0953211063 -0.000642665549 0)
(0.0954800149 -0.000686925563 0)
(0.0956471172 -0.000727493754 0)
(0.0958214489 -0.000763893216 0)
(0.0960019542 -0.000795703992 0)
(0.0961875 -0.000822578477 0)
(0.0963768928 -0.000844252815 0)
(0.0965688978 -0.000860553978 0)
(0.0967622608 -0.000871402811 0)
(0.0969557314 -0.000876813639 0)
(0.0971480862 -0.000876890979 0)
(0.0973381518 -0.000871823796 0)
(0.0975248248 -0.000861877543 0)
(0.0977070898 -0.000847384293 0)
(0.0978840329 -0.000828731314 0)
(0.0980548518 -0.000806348554 0)
(0.0982188621 -0.000780695666 0)
(0.0983755 -0.000752249125 0)
(0.0985243214 -0.000721489994 0)
(0.0986649984 -0.000688892804 0)
(0.0987973133 -0.000654915868 0)
(0.0989211507 -0.000619993155 0)
(0.099036488 -0.000584527783 0)
(0.0991433859 -0.000548887083 0)
(0.0992419776 -0.000513399256 0)
(0.0993324585 -0.000478351592 0)
(0.0994150767 -0.000443990201 0)
(0.099490122 -0.000410521021 0)
(0.0995579165 -0.000378111067 0)
(0.0996188055 -0.000346889118 0)
(0.0996731522 -0.000316947038 0)
(0.0997213357 -0.000288343672 0)
(0.0997637461 -0.000261111219 0)
(0.0998007766 -0.000235260202 0)
(0.0998328163 -0.000210780469 0)
(0.0998602501 -0.000187642317 0)
(0.0998834619 -0.000165802719 0)
(0.0999028326 -0.000145214071 0)
(0.0999187323 -0.000125828986 0)
(0.0999315164 -0.000107601246 0)
(0.0999415283 -9.04893374e-05 0)
(0.0999490997 -7.44644209e-05 0)
(0.0999545432 -5.95189875e-05 0)
(0.0999581359 -4.56736267e-05 0)
(0.0999601011 -3.29749832e-05 0)
(0.0999605828 -2.14756134e-05 0)
(0.0999595751 -1.1187227e-05 0)
(0.099956988 -1.96518781e-06 0)
(0.0999531886 6.43710804e-06 0)
(0.0999485718 1.3940243e-05 0)
(0.0999430699 2.05662402e-05 0)
(0.099936679 2.64200265e-05 0)
(0.0999295158 3.15862395e-05 0)
(0.0999216865 3.61324755e-05 0)
(0.0999132791 4.01212602e-05 0)
(0.0999043783 4.36096914e-05 0)
(0.0998950656 4.66484636e-05 0)
(0.0998854167 4.92821406e-05 0)
(0.0998755008 5.15495691e-05 0)
(0.0998653804 5.34842946e-05 0)
(0.0998551114 5.5115176e-05 0)
(0.0998447427 5.6467232e-05 0)
(0.0998343169 5.75625906e-05 0)
(0.0998238706 5.84213654e-05 0)
(0.0998134351 5.90623201e-05 0)
(0.0998030375 5.95032669e-05 0)
(0.0997927008 5.97612376e-05 0)
(0.0997824452 5.98525113e-05 0)
(0.0997722884 5.97925677e-05 0)
(0.0997622461 5.95960109e-05 0)
(0.0997523322 5.92764848e-05 0)
(0.099742559 5.8846591e-05 0)
(0.0997329377 5.83178185e-05 0)
(0.0997234782 5.77004963e-05 0)
(0.0997141892 5.70037814e-05 0)
(0.0997050781 5.62356917e-05 0)
(0.0996961516 5.54031867e-05 0)
(0.0996874152 5.4512284e-05 0)
(0.0996788732 5.35681928e-05 0)
(0.0996705293 5.25754799e-05 0)
(0.0996623862 5.15382252e-05 0)
(0.0996544463 5.0460141e-05 0)
(0.0996467113 4.93446455e-05 0)
(0.0996391828 4.81948707e-05 0)
(0.0996318634 4.70136655e-05 0)
(0.0996247522 4.58032293e-05 0)
(0.0996178629 4.45660428e-05 0)
(0.0996111631 4.32989595e-05 0)
(0.0996047904 4.2017373e-05 0)
(0.0995983153 4.06402164e-05 0)
(0.0995933666 3.94836746e-05 0)
(0.0995848591 3.70822993e-05 0)
(0.100001176 -2.43430551e-05 0)
(0.100012705 -7.66348709e-05 0)
(0.100039377 -0.000126497935 0)
(0.100081213 -0.000163023771 0)
(0.10013301 -0.000176804571 0)
(0.100187877 -0.000163909615 0)
(0.100239329 -0.000125863237 0)
(0.100281927 -6.78117883e-05 0)
(0.100311772 3.59853607e-06 0)
(0.10032531 7.92807495e-05 0)
(0.100322033 0.000150121098 0)
(0.100304816 0.000209325107 0)
(0.100276523 0.000252404976 0)
(0.100240504 0.000277124625 0)
(0.100200434 0.000283326647 0)
(0.100159875 0.000272426563 0)
(0.100122069 0.000246811619 0)
(0.100089848 0.000209524031 0)
(0.100065517 0.000164455653 0)
(0.100050604 0.000116839504 0)
(0.100045455 7.34404691e-05 0)
(0.100048774 4.19196081e-05 0)
(0.100057515 2.93670046e-05 0)
(0.100067189 4.05084275e-05 0)
(0.100072455 7.61395723e-05 0)
(0.10006792 0.000132899229 0)
(0.100049073 0.000204263258 0)
(0.10001307 0.000281946635 0)
(0.0999590601 0.000357522977 0)
(0.0998880898 0.000423799945 0)
(0.099802709 0.000475616127 0)
(0.0997064171 0.000510066119 0)
(0.099603118 0.000526328199 0)
(0.0994966895 0.000525313259 0)
(0.0993906879 0.000509329192 0)
(0.099288145 0.000481868351 0)
(0.0991913818 0.00044751104 0)
(0.0991017868 0.00041182873 0)
(0.09901957 0.000381109273 0)
(0.0989435681 0.00036175582 0)
(0.0988712022 0.000359338613 0)
(0.0987986816 0.000377465498 0)
(0.0987214916 0.000416794891 0)
(0.0986351252 0.00047456165 0)
(0.098535931 0.000544888051 0)
(0.0984218547 0.000619917165 0)
(0.0982928432 0.000691507544 0)
(0.0981507698 0.000752999609 0)
(0.097998901 0.000800516504 0)
(0.0978410782 0.000833419707 0)
(0.0976808732 0.000853840301 0)
(0.0975209626 0.000865530218 0)
(0.0973628706 0.000872490984 0)
(0.097207084 0.000877856389 0)
(0.0970534185 0.000883336598 0)
(0.096901455 0.00088926726 0)
(0.0967508829 0.00089507501 0)
(0.0966016678 0.000899865525 0)
(0.0964540492 0.000902881183 0)
(0.0963084358 0.000903708799 0)
(0.096165279 0.000902259337 0)
(0.096024984 0.000898625209 0)
(0.0958878756 0.000892928228 0)
(0.0957542073 0.000885226478 0)
(0.0956241896 0.000875491929 0)
(0.095498015 0.000863633734 0)
(0.0953758729 0.000849533852 0)
(0.0952579544 0.000833072687 0)
(0.0951444518 0.000814138899 0)
(0.095035559 0.000792628624 0)
(0.0949314731 0.000768441843 0)
(0.094832398 0.000741480801 0)
(0.0947385495 0.000711651539 0)
(0.0946501595 0.000678867444 0)
(0.0945674806 0.000643053119 0)
(0.0944907903 0.000604147417 0)
(0.0944203954 0.000562104918 0)
(0.0943566382 0.000516895117 0)
(0.0942998989 0.000468494314 0)
(0.0942505933 0.000416869329 0)
(0.0942091125 0.000361893406 0)
(0.0941757297 0.000303403636 0)
(0.0941506498 0.000241279759 0)
(0.0941341517 0.000175555821 0)
(0.094126628 0.000106494677 0)
(0.0941290657 3.45370316e-05 0)
(0.0941423647 -3.9781782e-05 0)
(0.0941662731 -0.000114834239 0)
(0.0942011318 -0.000191004779 0)
(0.0942479781 -0.000268616103 0)
(0.0943071789 -0.000347329211 0)
(0.0943788633 -0.000426683549 0)
(0.0944631689 -0.000506224131 0)
(0.0945601221 -0.000585396349 0)
(0.094669622 -0.000663550198 0)
(0.0947914556 -0.000739978393 0)
(0.0949252787 -0.000813931252 0)
(0.0950706013 -0.000884630957 0)
(0.0952267862 -0.000951292736 0)
(0.0953930491 -0.00101314751 0)
(0.0955684631 -0.00106946463 0)
(0.0957519677 -0.00111957471 0)
(0.0959423828 -0.00116289157 0)
(0.0961384266 -0.00119893179 0)
(0.0963387375 -0.00122733101 0)
(0.0965419004 -0.00124785587 0)
(0.0967464751 -0.00126041101 0)
(0.0969510264 -0.00126504076 0)
(0.0971541543 -0.00126192539 0)
(0.0973545219 -0.00125137246 0)
(0.0975508813 -0.00123380377 0)
(0.0977420941 -0.001209739 0)
(0.0979271483 -0.00117977687 0)
(0.0981051693 -0.00114457513 0)
(0.0982754265 -0.00110483023 0)
(0.0984373346 -0.00106125761 0)
(0.0985904516 -0.00101457339 0)
(0.0987344721 -0.000965478145 0)
(0.0988692188 -0.000914642921 0)
(0.0989946311 -0.000862697902 0)
(0.099110753 -0.000810223667 0)
(0.09921772 -0.000757745036 0)
(0.099315745 -0.000705727324 0)
(0.099405106 -0.000654574664 0)
(0.0994861324 -0.000604630123 0)
(0.0995591945 -0.000556177346 0)
(0.0996246931 -0.000509443133 0)
(0.0996830508 -0.000464600591 0)
(0.0997347034 -0.000421773235 0)
(0.0997800921 -0.000381040411 0)
(0.0998196575 -0.000342443235 0)
(0.0998538381 -0.000305990787 0)
(0.0998830665 -0.000271666185 0)
(0.0999077632 -0.00023943158 0)
(0.0999283309 -0.000209232662 0)
(0.0999451544 -0.000181004925 0)
(0.0999586018 -0.000154682479 0)
(0.0999690218 -0.00013020277 0)
(0.0999767381 -0.000107504814 0)
(0.0999820444 -8.65308631e-05 0)
(0.0999851974 -6.72314018e-05 0)
(0.0999864138 -4.95587842e-05 0)
(0.0999858808 -3.34558275e-05 0)
(0.0999837812 -1.88552415e-05 0)
(0.0999803313 -5.66436876e-06 0)
(0.0999757345 6.27518521e-06 0)
(0.0999701016 1.71375475e-05 0)
(0.0999635724 2.68576406e-05 0)
(0.0999562931 3.5457315e-05 0)
(0.0999483329 4.3043736e-05 0)
(0.099939766 4.97123129e-05 0)
(0.099930674 5.55448664e-05 0)
(0.0999211333 6.06194294e-05 0)
(0.0999112156 6.50091036e-05 0)
(0.0999009886 6.87804578e-05 0)
(0.0998905151 7.19935726e-05 0)
(0.0998798527 7.4702491e-05 0)
(0.0998690539 7.69556366e-05 0)
(0.0998581657 7.87962789e-05 0)
(0.0998472301 8.02631027e-05 0)
(0.0998362841 8.13908236e-05 0)
(0.0998253602 8.22107758e-05 0)
(0.0998144865 8.27514217e-05 0)
(0.0998036875 8.30387621e-05 0)
(0.0997929844 8.30966537e-05 0)
(0.0997823955 8.29470508e-05 0)
(0.0997719367 8.26101859e-05 0)
(0.0997616216 8.21046989e-05 0)
(0.099751462 8.14477279e-05 0)
(0.0997414681 8.06549761e-05 0)
(0.0997316488 7.97407637e-05 0)
(0.0997220115 7.87180771e-05 0)
(0.0997125629 7.75986216e-05 0)
(0.0997033084 7.63928853e-05 0)
(0.0996942526 7.51102146e-05 0)
(0.0996853993 7.37588919e-05 0)
(0.0996767514 7.23462078e-05 0)
(0.0996683114 7.08785594e-05 0)
(0.0996600811 6.9361544e-05 0)
(0.0996520616 6.78000248e-05 0)
(0.0996442541 6.61981685e-05 0)
(0.0996366591 6.45594185e-05 0)
(0.0996292783 6.28865113e-05 0)
(0.0996221093 6.11809282e-05 0)
(0.0996151643 5.94444683e-05 0)
(0.099608405 5.76703811e-05 0)
(0.0996019701 5.58801718e-05 0)
(0.0995953854 5.39581468e-05 0)
(0.0995903533 5.23581427e-05 0)
(0.0995813644 4.91051567e-05 0)
(0.1000015 -2.96421839e-05 0)
(0.100014317 -9.32484196e-05 0)
(0.100041727 -0.000154418625 0)
(0.100083235 -0.000200491884 0)
(0.10013395 -0.000220525615 0)
(0.10018746 -0.000209724056 0)
(0.100237694 -0.00016945207 0)
(0.100279302 -0.000105543647 0)
(0.100307997 -2.69652104e-05 0)
(0.100321977 5.56612813e-05 0)
(0.100321065 0.000133984878 0)
(0.100306155 0.000200368852 0)
(0.100279946 0.000249395677 0)
(0.100245864 0.000278379807 0)
(0.100207497 0.00028697117 0)
(0.100168346 0.000276579405 0)
(0.100131623 0.000249718304 0)
(0.100100117 0.000209646925 0)
(0.100076082 0.000160597036 0)
(0.100061008 0.000108346379 0)
(0.100055286 6.04514521e-05 0)
(0.10005788 2.55399081e-05 0)
(0.100066044 1.15839143e-05 0)
(0.100075224 2.39115262e-05 0)
(0.100079883 6.39859463e-05 0)
(0.10007482 0.000128738869 0)
(0.100055933 0.000211072027 0)
(0.100020623 0.000301580968 0)
(0.0999680378 0.000390515164 0)
(0.0998990453 0.000469390292 0)
(0.0998159207 0.000531981758 0)
(0.0997218728 0.000574670404 0)
(0.0996205604 0.000596293736 0)
(0.0995156866 0.000597744984 0)
(0.0994106993 0.000581559706 0)
(0.0993085743 0.000551644339 0)
(0.0992116264 0.000513162496 0)
(0.0991213015 0.000472450503 0)
(0.0990379351 0.00043674158 0)
(0.0989605262 0.000413509466 0)
(0.0988866431 0.00040939527 0)
(0.0988126096 0.000428883887 0)
(0.0987340258 0.000473088243 0)
(0.0986465286 0.00053909238 0)
(0.0985466027 0.000620206498 0)
(0.0984322414 0.000707213912 0)
(0.0983032945 0.000790345662 0)
(0.0981614108 0.000861431766 0)
(0.098009584 0.000915572327 0)
(0.0978514277 0.000951815598 0)
(0.0976903958 0.00097268288 0)
(0.0975291728 0.000982797355 0)
(0.0973693892 0.000987174076 0)
(0.0972116848 0.000989784444 0)
(0.0970560229 0.000992812896 0)
(0.0969020908 0.000996688318 0)
(0.0967496308 0.00100066498 0)
(0.0965986164 0.00100357855 0)
(0.0964492683 0.00100444477 0)
(0.0963019684 0.00100273724 0)
(0.0961571458 0.000998365499 0)
(0.0960151916 0.000991488556 0)
(0.095876423 0.000982312413 0)
(0.095741088 0.000970963741 0)
(0.09560939 0.000957457337 0)
(0.0954815134 0.000941725222 0)
(0.0953576384 0.000923662994 0)
(0.0952379475 0.000903163295 0)
(0.0951226259 0.000880128132 0)
(0.0950118617 0.000854466726 0)
(0.094905848 0.000826089249 0)
(0.0948047871 0.00079490317 0)
(0.0947088945 0.000760813846 0)
(0.0946184037 0.000723727979 0)
(0.0945335699 0.000683557741 0)
(0.0944546734 0.000640224037 0)
(0.0943820224 0.000593658194 0)
(0.0943159556 0.00054380165 0)
(0.0942568412 0.000490602669 0)
(0.0942050735 0.000434012317 0)
(0.0941610595 0.000373980178 0)
(0.0941252067 0.00031049686 0)
(0.0940979692 0.000243661781 0)
(0.0940798415 0.000173681485 0)
(0.0940712688 0.000100792924 0)
(0.0940720341 2.52084739e-05 0)
(0.0940822468 -5.29717722e-05 0)
(0.0941033566 -0.000133670568 0)
(0.094136471 -0.000216328663 0)
(0.0941818947 -0.000300661037 0)
(0.0942398743 -0.000386390189 0)
(0.0943107033 -0.000473063667 0)
(0.0943946175 -0.000560131971 0)
(0.0944917275 -0.000646962009 0)
(0.0946020156 -0.000732830002 0)
(0.094725336 -0.000816938809 0)
(0.0948613953 -0.000898435596 0)
(0.0950097373 -0.000976428177 0)
(0.095169736 -0.00105000662 0)
(0.095340593 -0.00111826947 0)
(0.0955213402 -0.00118035274 0)
(0.0957108478 -0.00123546002 0)
(0.0959078404 -0.00128289177 0)
(0.0961109185 -0.00132207161 0)
(0.096318586 -0.00135256762 0)
(0.0965292823 -0.00137410745 0)
(0.0967414174 -0.00138658653 0)
(0.0969534083 -0.00139006925 0)
(0.0971637151 -0.00138478334 0)
(0.097370874 -0.0013711082 0)
(0.097573527 -0.00134955799 0)
(0.097770446 -0.00132076064 0)
(0.0979605509 -0.00128543421 0)
(0.0981429219 -0.00124436172 0)
(0.0983168051 -0.001198366 0)
(0.0984816131 -0.00114828567 0)
(0.0986369198 -0.00109495316 0)
(0.098782452 -0.00103917549 0)
(0.0989180768 -0.000981718364 0)
(0.0990437879 -0.000923293548 0)
(0.0991596899 -0.000864549676 0)
(0.0992659821 -0.00080606624 0)
(0.0993629427 -0.000748350419 0)
(0.099450914 -0.000691836432 0)
(0.0995302882 -0.000636886978 0)
(0.099601494 -0.000583796334 0)
(0.0996649849 -0.000532794829 0)
(0.0997212288 -0.000484054388 0)
(0.0997706998 -0.00043769453 0)
(0.0998138738 -0.000393788423 0)
(0.0998512234 -0.000352368858 0)
(0.0998832092 -0.000313434874 0)
(0.0999102751 -0.00027695901 0)
(0.0999328497 -0.000242892855 0)
(0.0999513474 -0.000211171013 0)
(0.0999661627 -0.000181714733 0)
(0.0999776632 -0.000154432731 0)
(0.0999861985 -0.000129223911 0)
(0.0999921063 -0.000105982425 0)
(0.0999957046 -8.45982051e-05 0)
(0.0999972938 -6.4966668e-05 0)
(0.0999971601 -4.7002129e-05 0)
(0.0999955504 -3.06300708e-05 0)
(0.0999926516 -1.57746806e-05 0)
(0.0999885633 -2.38457582e-06 0)
(0.0999832854 9.64636779e-06 0)
(0.099976923 2.04416222e-05 0)
(0.099969694 3.01076947e-05 0)
(0.0999617291 3.87057724e-05 0)
(0.0999531091 4.63098963e-05 0)
(0.0999439214 5.30007136e-05 0)
(0.0999342523 5.88559467e-05 0)
(0.0999241795 6.39497996e-05 0)
(0.0999137746 6.83523623e-05 0)
(0.099903104 7.21285636e-05 0)
(0.0998922291 7.53377054e-05 0)
(0.0998812056 7.80335396e-05 0)
(0.0998700837 8.02645823e-05 0)
(0.0998589079 8.20745254e-05 0)
(0.0998477172 8.35027418e-05 0)
(0.0998365457 8.45848418e-05 0)
(0.0998254225 8.53532075e-05 0)
(0.099814373 8.58374528e-05 0)
(0.0998034186 8.60647834e-05 0)
(0.0997925779 8.60602566e-05 0)
(0.0997818671 8.58469632e-05 0)
(0.0997713 8.5446153e-05 0)
(0.0997608886 8.48773243e-05 0)
(0.0997506435 8.41582934e-05 0)
(0.0997405738 8.33052557e-05 0)
(0.0997306876 8.23328471e-05 0)
(0.0997209916 8.12542105e-05 0)
(0.0997114917 8.00810749e-05 0)
(0.0997021927 7.88238453e-05 0)
(0.0996930986 7.74917069e-05 0)
(0.0996842125 7.60927358e-05 0)
(0.0996755368 7.46340112e-05 0)
(0.099667073 7.31217282e-05 0)
(0.0996588222 7.15612974e-05 0)
(0.0996507849 6.99574167e-05 0)
(0.0996429615 6.83141118e-05 0)
(0.0996353515 6.6634709e-05 0)
(0.0996279558 6.49218802e-05 0)
(0.0996207709 6.31770757e-05 0)
(0.0996138077 6.14024373e-05 0)
(0.0996070274 5.95913434e-05 0)
(0.0996005662 5.77685989e-05 0)
(0.0995939678 5.58169022e-05 0)
(0.0995889139 5.42101795e-05 0)
(0.0995801237 5.09599734e-05 0)
(0.100001354 -3.78549637e-05 0)
(0.100013723 -0.000119648219 0)
(0.100041349 -0.000199243123 0)
(0.100084387 -0.000260039698 0)
(0.10013806 -0.000287524061 0)
(0.100195544 -0.000275236065 0)
(0.100250038 -0.00022479414 0)
(0.100295412 -0.000143641509 0)
(0.10032667 -4.29357703e-05 0)
(0.100341559 6.48036411e-05 0)
(0.100340121 0.000166635647 0)
(0.100323551 0.000252542401 0)
(0.100294642 0.000316029 0)
(0.100257144 0.00035379104 0)
(0.100215066 0.000365399299 0)
(0.100172365 0.000352616229 0)
(0.100132706 0.000318566737 0)
(0.100099294 0.000267308383 0)
(0.100074719 0.000204138413 0)
(0.100060657 0.000136353662 0)
(0.100057438 7.36015736e-05 0)
(0.100063553 2.70519355e-05 0)
(0.100075638 7.46646083e-06 0)
(0.100089272 2.19343658e-05 0)
(0.100099254 7.24034264e-05 0)
(0.100099728 0.000154518223 0)
(0.100085506 0.000259070287 0)
(0.1000533 0.000374078165 0)
(0.100002006 0.000487120597 0)
(0.0999325487 0.000587411961 0)
(0.0998474817 0.000667092023 0)
(0.0997504425 0.000721639244 0)
(0.0996455947 0.000749630858 0)
(0.0995371669 0.000752189222 0)
(0.0994291105 0.000732438161 0)
(0.0993248419 0.000695172295 0)
(0.0992270045 0.00064675243 0)
(0.0991372024 0.000595052429 0)
(0.0990557268 0.000549165438 0)
(0.0989813635 0.000518596783 0)
(0.0989113702 0.000511871098 0)
(0.0988416914 0.000534793444 0)
(0.0987674589 0.00058886415 0)
(0.0986837641 0.00067043087 0)
(0.0985865585 0.000771023906 0)
(0.0984734476 0.000878968142 0)
(0.0983441417 0.000981910107 0)
(0.0982004158 0.00106954153 0)
(0.0980455914 0.00113569535 0)
(0.0978837041 0.00117918614 0)
(0.0977186165 0.00120320608 0)
(0.0975533319 0.00121360133 0)
(0.0973896733 0.00121672378 0)
(0.0972283509 0.00121762318 0)
(0.0970693077 0.00121910353 0)
(0.0969121627 0.00122175163 0)
(0.0967565808 0.00122466035 0)
(0.0966024731 0.001226379 0)
(0.0964500209 0.00122567231 0)
(0.0962995859 0.00122187828 0)
(0.0961515875 0.0012148879 0)
(0.0960064087 0.00120491372 0)
(0.0958643557 0.00119223433 0)
(0.0957256618 0.00117703217 0)
(0.095590514 0.00115934895 0)
(0.0954590793 0.00113911957 0)
(0.0953315214 0.00111622881 0)
(0.0952080076 0.00109055301 0)
(0.0950887108 0.00106197592 0)
(0.0949738098 0.00103038657 0)
(0.0948634925 0.000995671667 0)
(0.0947579596 0.000957711046 0)
(0.0946574299 0.000916378403 0)
(0.0945621445 0.000871545422 0)
(0.0944723709 0.00082308656 0)
(0.0943884054 0.000770882707 0)
(0.0943105751 0.000714823323 0)
(0.0942392383 0.000654807361 0)
(0.094174783 0.00059074359 0)
(0.0941176236 0.000522551988 0)
(0.0940681937 0.000450166982 0)
(0.0940269357 0.000373548781 0)
(0.0939942987 0.000292695643 0)
(0.0939707146 0.000207615428 0)
(0.0939565845 0.000118350961 0)
(0.0939527721 2.50409795e-05 0)
(0.0939600736 -7.1626308e-05 0)
(0.0939787912 -0.000171085434 0)
(0.0940095071 -0.00027318102 0)
(0.0940529147 -0.000377609814 0)
(0.094109545 -0.000483880659 0)
(0.0941798153 -0.000591386966 0)
(0.0942640567 -0.000699427386 0)
(0.0943624915 -0.000807194183 0)
(0.094475208 -0.000913769537 0)
(0.0946021422 -0.00101814101 0)
(0.0947430578 -0.00111922269 0)
(0.094897527 -0.00121587928 0)
(0.0950649176 -0.00130695558 0)
(0.0952443877 -0.00139131042 0)
(0.0954348862 -0.00146785286 0)
(0.0956351631 -0.00153557921 0)
(0.0958437876 -0.00159360917 0)
(0.0960591748 -0.00164121885 0)
(0.0962796195 -0.00167786852 0)
(0.0965033366 -0.00170322321 0)
(0.0967285048 -0.00171716447 0)
(0.0969533121 -0.00171979278 0)
(0.0971760009 -0.00171142041 0)
(0.0973949091 -0.00169255547 0)
(0.0976085065 -0.00166387877 0)
(0.0978154232 -0.001626215 0)
(0.0980144713 -0.00158050054 0)
(0.0982046575 -0.00152774972 0)
(0.0983851883 -0.00146902155 0)
(0.0985554679 -0.00140538838 0)
(0.0987150902 -0.00133790772 0)
(0.0988638258 -0.00126759812 0)
(0.0990016056 -0.0011954195 0)
(0.099128502 -0.00112225808 0)
(0.0992447093 -0.00104891571 0)
(0.0993505234 -0.000976103457 0)
(0.0994463221 -0.000904438671 0)
(0.0995325474 -0.000834445353 0)
(0.0996096876 -0.000766556978 0)
(0.0996782633 -0.000701121283 0)
(0.0997388144 -0.000638406284 0)
(0.0997918895 -0.000578607021 0)
(0.0998380369 -0.000521852835 0)
(0.0998777965 -0.000468215475 0)
(0.0999116939 -0.000417718115 0)
(0.0999402361 -0.000370343221 0)
(0.0999639103 -0.000326038315 0)
(0.0999831803 -0.000284722048 0)
(0.0999984839 -0.000246292372 0)
(0.100010236 -0.000210634173 0)
(0.100018829 -0.00017762315 0)
(0.10002463 -0.000147130097 0)
(0.100027973 -0.000119033961 0)
(0.10002915 -9.32337341e-05 0)
(0.10002839 -6.96348754e-05 0)
(0.100025875 -4.813476e-05 0)
(0.100021778 -2.86252438e-05 0)
(0.100016255 -1.09899983e-05 0)
(0.100009558 4.88615327e-06 0)
(0.100001976 1.90755138e-05 0)
(0.0999936231 3.1747697e-05 0)
(0.0999845674 4.30317103e-05 0)
(0.0999749172 5.30231922e-05 0)
(0.0999647641 6.18250902e-05 0)
(0.0999541865 6.95397084e-05 0)
(0.0999432586 7.62620853e-05 0)
(0.099932048 8.20810006e-05 0)
(0.0999206156 8.70793941e-05 0)
(0.0999090168 9.13341021e-05 0)
(0.0998973016 9.49157495e-05 0)
(0.0998855151 9.7888888e-05 0)
(0.0998736981 0.000100312282 0)
(0.0998618872 0.000102239245 0)
(0.099850115 0.000103718034 0)
(0.0998384106 0.000104792284 0)
(0.0998267996 0.000105501482 0)
(0.0998153042 0.000105881408 0)
(0.0998039436 0.00010596456 0)
(0.0997927342 0.000105780514 0)
(0.0997816901 0.000105356239 0)
(0.0997708228 0.000104716351 0)
(0.0997601421 0.000103883324 0)
(0.0997496559 0.000102877664 0)
(0.0997393709 0.000101718046 0)
(0.0997292923 0.000100421437 0)
(0.0997194244 9.90031988e-05 0)
(0.0997097705 9.74771908e-05 0)
(0.0997003332 9.58558591e-05 0)
(0.0996911145 9.41503279e-05 0)
(0.0996821156 9.23704853e-05 0)
(0.0996733375 9.05250644e-05 0)
(0.0996647805 8.86217196e-05 0)
(0.0996564447 8.66670963e-05 0)
(0.0996483299 8.46668861e-05 0)
(0.0996404354 8.26258719e-05 0)
(0.0996327603 8.05479217e-05 0)
(0.0996253044 7.84361043e-05 0)
(0.0996180631 7.62920832e-05 0)
(0.0996110463 7.41186005e-05 0)
(0.0996042119 7.19080164e-05 0)
(0.0995976978 6.96916006e-05 0)
(0.0995910181 6.73275166e-05 0)
(0.0995859044 6.53925119e-05 0)
(0.0995767516 6.14766835e-05 0)
(0.100001406 -4.54596864e-05 0)
(0.100014086 -0.000143749415 0)
(0.100042153 -0.000239970038 0)
(0.100085599 -0.000314769731 0)
(0.100139556 -0.000351134767 0)
(0.100197299 -0.000341230309 0)
(0.100252273 -0.000286433785 0)
(0.100298623 -0.000195005401 0)
(0.100331879 -7.99378741e-05 0)
(0.100348842 4.35476452e-05 0)
(0.10034843 0.000160801506 0)
(0.100332496 0.000260311639 0)
(0.100304208 0.000334368748 0)
(0.100267191 0.000379068365 0)
(0.10022542 0.000393817515 0)
(0.100182859 0.000380486495 0)
(0.100143188 0.000342502366 0)
(0.100109639 0.000284395342 0)
(0.100084838 0.000212176127 0)
(0.100070556 0.000134208702 0)
(0.100067349 6.16467319e-05 0)
(0.100074423 7.39423288e-06 0)
(0.100088607 -1.64628446e-05 0)
(0.100104726 -9.11471376e-07 0)
(0.100116563 5.62063784e-05 0)
(0.1001181 0.000150397614 0)
(0.100104945 0.000271412459 0)
(0.100074131 0.00040538121 0)
(0.100024464 0.000537792384 0)
(0.0999566899 0.000655970555 0)
(0.0998731915 0.000750590983 0)
(0.0997774641 0.000816208356 0)
(0.099673584 0.000851007444 0)
(0.0995657438 0.000856156563 0)
(0.0994578954 0.000835156593 0)
(0.0993534777 0.000793441182 0)
(0.0992551816 0.00073826 0)
(0.0991647107 0.000678634694 0)
(0.0990825122 0.000625038612 0)
(0.0990075178 0.00058849764 0)
(0.0989370396 0.000579014975 0)
(0.0988669787 0.000603559121 0)
(0.0987923871 0.000664180324 0)
(0.0987082874 0.000756939969 0)
(0.0986105771 0.000872190775 0)
(0.0984967987 0.000996363588 0)
(0.0983665717 0.00111489487 0)
(0.0982215691 0.00121547274 0)
(0.0980650404 0.00129060533 0)
(0.0979010129 0.00133872104 0)
(0.0977334074 0.00136353039 0)
(0.0975653295 0.00137200662 0)
(0.0973987169 0.00137180856 0)
(0.0972343791 0.00136907645 0)
(0.0970723277 0.00136725494 0)
(0.0969122189 0.00136709599 0)
(0.0967537312 0.00136751964 0)
(0.0965967757 0.00136676833 0)
(0.0964415297 0.00136333993 0)
(0.0962883496 0.00135643511 0)
(0.0961376491 0.00134593978 0)
(0.095989803 0.00133214363 0)
(0.0958451056 0.00131542454 0)
(0.095703774 0.00129604524 0)
(0.0955659753 0.00127409483 0)
(0.0954318551 0.00124952819 0)
(0.0953015555 0.00122223533 0)
(0.0951752245 0.00119209307 0)
(0.0950530178 0.00115898485 0)
(0.0949351006 0.00112279777 0)
(0.0948216503 0.00108341252 0)
(0.0947128609 0.00104069715 0)
(0.0946089478 0.000994507379 0)
(0.0945101515 0.000944691422 0)
(0.0944167406 0.000891096044 0)
(0.0943290141 0.000833571674 0)
(0.0942473025 0.000771976262 0)
(0.0941719687 0.000706178233 0)
(0.0941034081 0.000636059232 0)
(0.0940420475 0.000561517584 0)
(0.0939883431 0.000482473417 0)
(0.093942779 0.000398877349 0)
(0.0939058676 0.000310724504 0)
(0.0938781589 0.000218066898 0)
(0.0938602477 0.000121048826 0)
(0.0938526376 1.99404354e-05 0)
(0.0938558894 -8.52482098e-05 0)
(0.0938708035 -0.000194262268 0)
(0.0938981799 -0.000306692598 0)
(0.0939387271 -0.000422128134 0)
(0.0939930672 -0.000540062746 0)
(0.0940617577 -0.000659847364 0)
(0.094145278 -0.000780689731 0)
(0.0942439914 -0.000901658782 0)
(0.0943581159 -0.00102168911 0)
(0.0944876996 -0.00113959311 0)
(0.0946325934 -0.00125408112 0)
(0.0947924259 -0.00136378881 0)
(0.0949665832 -0.0014673125 0)
(0.0951541971 -0.00156325186 0)
(0.0953541427 -0.00165025782 0)
(0.0955650466 -0.0017270827 0)
(0.0957853076 -0.00179262935 0)
(0.0960131292 -0.00184599584 0)
(0.0962465619 -0.00188651257 0)
(0.0964835547 -0.00191376904 0)
(0.0967220116 -0.00192762871 0)
(0.0969598497 -0.00192823103 0)
(0.0971950559 -0.00191598078 0)
(0.0974257391 -0.00189152607 0)
(0.0976501737 -0.00185572682 0)
(0.0978668349 -0.00180961625 0)
(0.0980744223 -0.00175435829 0)
(0.0982718731 -0.00169120354 0)
(0.0984583658 -0.00162144648 0)
(0.0986333143 -0.00154638587 0)
(0.0987963544 -0.00146728989 0)
(0.098947326 -0.00138536711 0)
(0.0990862495 -0.00130174359 0)
(0.0992133019 -0.00121744614 0)
(0.099328791 -0.00113339148 0)
(0.0994331301 -0.00105038061 0)
(0.0995268148 -0.00096909767 0)
(0.0996104007 -0.000890112359 0)
(0.0996844847 -0.000813885312 0)
(0.0997496878 -0.000740775486 0)
(0.0998066407 -0.000671049031 0)
(0.0998559721 -0.00060488921 0)
(0.0998982994 -0.000542406749 0)
(0.0999342215 -0.000483649926 0)
(0.0999643143 -0.000428614106 0)
(0.0999891261 -0.000377250878 0)
(0.100009175 -0.000329477043 0)
(0.100024945 -0.000285183265 0)
(0.100036893 -0.000244240635 0)
(0.100045436 -0.000206505598 0)
(0.100050959 -0.000171827182 0)
(0.100053808 -0.00014005124 0)
(0.100054287 -0.000111019122 0)
(0.100052685 -8.45697818e-05 0)
(0.100049302 -6.05396083e-05 0)
(0.100044442 -3.87623683e-05 0)
(0.100038367 -1.90773388e-05 0)
(0.100031275 -1.32855178e-06 0)
(0.100023213 1.46648573e-05 0)
(0.100014242 2.90196135e-05 0)
(0.100004531 4.18186561e-05 0)
(0.0999942135 5.31813392e-05 0)
(0.0999833886 6.32191996e-05 0)
(0.0999721451 7.20368696e-05 0)
(0.0999605612 7.97364265e-05 0)
(0.0999487076 8.64147674e-05 0)
(0.0999366483 9.21627656e-05 0)
(0.0999244409 9.70653117e-05 0)
(0.0999121378 0.000101201204 0)