/*--------------------------------*- C++ -*----------------------------------*\
| =========                 |                                                 |
| \\      /  F ield         | OpenFOAM: The Open Source CFD Toolbox           |
|  \\    /   O peration     | Version:  v2012                                 |
|   \\  /    A nd           | Website:  www.openfoam.com                      |
|    \\/     M anipulation  |                                                 |
\*---------------------------------------------------------------------------*/
FoamFile
{
    version     2.0;
    format      ascii;
    class       volScalarField;
    location    "2.79";
    object      p;
}
// * * * * * * * * * * * * * * * * * * * * * * * * * * * * * * * * * * * * * //

dimensions      [0 2 -2 0 0 0 0];


internalField   nonuniform List<scalar> 
28416
(
-0.00416714555
-0.00416834585
-0.00417094708
-0.00417483346
-0.0041798342
-0.00418588948
-0.00419301699
-0.00420127642
-0.00421094191
-0.00422089789
-0.00423183768
-0.0042437416
-0.00425659508
-0.00427039619
-0.00428509621
-0.00430062428
-0.00431689563
-0.00433381196
-0.00435126432
-0.00436913618
-0.00438730696
-0.00440565516
-0.0044240648
-0.00444241809
-0.00446054899
-0.00447834804
-0.00449569565
-0.00451247093
-0.00452854591
-0.00454378485
-0.00455804985
-0.0045712012
-0.00458309664
-0.00459359266
-0.00460254622
-0.00460981578
-0.00461526182
-0.00461874689
-0.00462013565
-0.00461929545
-0.00461609918
-0.00461043065
-0.00460218999
-0.00459129541
-0.00457768135
-0.00456129544
-0.00454209713
-0.00452005794
-0.00449516233
-0.00446740822
-0.00443680746
-0.00440338609
-0.00436718463
-0.0043282582
-0.00428667626
-0.00424252201
-0.00419589149
-0.00414689228
-0.00409564218
-0.00404226773
-0.00398690287
-0.00392968755
-0.00387076639
-0.00381028737
-0.00374840049
-0.00368525646
-0.00362100542
-0.00355579576
-0.00348977306
-0.00342307904
-0.00335585083
-0.00328822033
-0.00322031365
-0.00315225088
-0.00308414593
-0.00301610662
-0.00294823525
-0.00288062971
-0.00281338651
-0.0027466067
-0.00268040754
-0.00261486462
-0.00255003646
-0.00248596229
-0.00242266749
-0.00236015246
-0.00229841878
-0.00223691117
-0.00217644064
-0.00211704365
-0.00205866343
-0.00200135473
-0.00194518509
-0.00189019856
-0.00183643625
-0.00178394228
-0.00173275875
-0.00168292423
-0.00163447399
-0.00158743929
-0.0015418463
-0.0014977153
-0.0014550599
-0.00141388635
-0.00137419302
-0.00133597009
-0.00129919942
-0.0012638547
-0.00122990183
-0.00119729953
-0.00116600003
-0.00113595012
-0.0011070921
-0.00107936491
-0.00105270524
-0.00102704863
-0.00100233044
-0.000978486825
-0.000955455531
-0.000933176574
-0.000911592815
-0.000890650406
-0.000870299105
-0.000850492452
-0.000831187859
-0.000812346587
-0.000793933664
-0.000775917841
-0.000758271558
-0.000740970711
-0.000723994125
-0.000707322946
-0.000690940217
-0.000674830774
-0.000658981161
-0.000643379271
-0.000628013866
-0.000612874402
-0.000597951049
-0.000583234726
-0.000568716591
-0.000554387022
-0.000540234528
-0.000526244854
-0.000512403216
-0.000498710915
-0.000485149705
-0.000471736263
-0.000458477016
-0.000445359004
-0.00043238167
-0.000419545805
-0.000406849427
-0.000394290294
-0.000381866199
-0.000369574601
-0.000357412587
-0.000345376962
-0.000333464327
-0.000321671133
-0.000309993726
-0.000298428377
-0.000286971323
-0.000275618782
-0.000264366965
-0.000253212093
-0.000242150392
-0.000231178094
-0.000220291435
-0.000209486661
-0.000198760013
-0.000188107735
-0.000177526068
-0.000167011247
-0.000156559496
-0.000146167024
-0.000135830048
-0.000125544835
-0.000115307698
-0.000105114992
-9.4963113e-05
-8.48485179e-05
-7.47677061e-05
-6.47173344e-05
-5.46938898e-05
-4.46949907e-05
-3.47152491e-05
-2.47617186e-05
-1.48055006e-05
-4.97375997e-06
-0.00416152861
-0.00416244202
-0.00416475495
-0.00416850461
-0.00417349915
-0.00417961986
-0.00418686688
-0.00419524744
-0.00420463182
-0.0042152562
-0.00422678188
-0.00423923319
-0.00425262211
-0.00426689662
-0.0042820118
-0.00429791098
-0.0043145231
-0.004331766
-0.00434954826
-0.00436777102
-0.00438632816
-0.00440510634
-0.00442398814
-0.00444286039
-0.00446158269
-0.00448002614
-0.00449806207
-0.00451555795
-0.00453237863
-0.00454838553
-0.00456343759
-0.00457739159
-0.004590102
-0.00460142118
-0.00461119993
-0.00461928788
-0.0046255342
-0.00462978901
-0.00463190591
-0.00463174525
-0.00462917694
-0.0046240828
-0.00461635834
-0.00460591455
-0.00459267904
-0.00457659592
-0.00455762454
-0.0045357378
-0.00451092113
-0.00448317232
-0.00445250226
-0.00441893599
-0.0043825137
-0.00434329139
-0.00430134094
-0.00425674941
-0.00420961799
-0.00416006043
-0.00410820146
-0.00405417513
-0.00399812323
-0.00394019376
-0.00388053941
-0.00381931601
-0.00375668101
-0.00369279205
-0.00362780555
-0.00356187541
-0.00349515198
-0.00342778096
-0.00335990263
-0.00329165118
-0.00322315429
-0.00315453283
-0.00308590089
-0.00301736595
-0.0029490294
-0.00288098742
-0.00281333204
-0.00274615149
-0.0026795271
-0.00261351821
-0.0025481616
-0.0024834925
-0.00241955006
-0.00235637952
-0.00229398197
-0.00223243708
-0.00217170312
-0.00211193172
-0.00205319247
-0.00199552193
-0.00193897357
-0.00188360107
-0.00182945317
-0.00177657841
-0.0017250246
-0.00167483709
-0.00162605805
-0.00157872562
-0.00153287269
-0.00148852579
-0.00144570403
-0.00140441821
-0.00136466998
-0.00132645148
-0.00128974503
-0.00125452332
-0.0012207498
-0.0011883794
-0.0011573595
-0.00112763106
-0.00109912996
-0.00107178834
-0.00104553596
-0.00102030153
-0.000996013936
-0.000972603333
-0.000950002078
-0.000928145493
-0.000906972474
-0.000886425926
-0.000866453033
-0.000847005397
-0.000828039065
-0.000809514483
-0.000791396348
-0.000773653356
-0.000756257861
-0.00073918554
-0.000722415112
-0.000705928041
-0.000689708054
-0.000673740619
-0.000658012732
-0.000642512928
-0.000627231244
-0.000612159004
-0.000597287669
-0.000582608735
-0.000568113734
-0.000553794338
-0.000539643243
-0.000525655108
-0.000511825494
-0.00049814945
-0.000484653397
-0.000471292706
-0.000458072268
-0.000444991464
-0.000432049282
-0.000419245232
-0.0004065778
-0.000394044878
-0.000381644218
-0.000369373382
-0.000357229682
-0.000345210198
-0.000333311824
-0.000321531311
-0.000309865284
-0.000298310267
-0.000286862708
-0.000275518999
-0.000264275488
-0.000253128495
-0.000242074321
-0.000231109248
-0.00022022955
-0.000209431495
-0.000198711345
-0.00018806536
-0.000177489797
-0.000166980911
-0.000156534951
-0.000146148172
-0.000135816835
-0.000125537229
-0.000115305672
-0.000105118515
-9.49721398e-05
-8.48629731e-05
-7.47874606e-05
-6.47421749e-05
-5.47234416e-05
-4.47286449e-05
-3.4751684e-05
-2.47988881e-05
-1.48366745e-05
-4.9936245e-06
-0.00415565982
-0.00415673812
-0.00415920971
-0.00416306136
-0.00416813526
-0.00417433712
-0.00418166728
-0.00419012529
-0.00419965077
-0.00421026093
-0.00422188655
-0.00423453728
-0.00424815842
-0.00426271543
-0.00427815668
-0.00429441789
-0.00431142508
-0.00432909389
-0.00434733032
-0.00436603237
-0.00438509204
-0.00440439531
-0.00442382056
-0.00444325749
-0.00446255793
-0.00448159382
-0.0045002449
-0.0045183817
-0.00453586673
-0.00455255775
-0.00456830888
-0.0045829705
-0.00459638935
-0.00460840933
-0.00461887287
-0.00462762261
-0.00463450345
-0.00463936461
-0.00464206113
-0.00464245477
-0.00464041506
-0.0046358213
-0.00462856487
-0.00461855051
-0.00460569691
-0.00458993735
-0.00457122057
-0.00454951137
-0.00452479067
-0.00449705528
-0.00446631776
-0.00443260642
-0.00439596554
-0.00435645544
-0.0043141522
-0.00426914713
-0.00422154579
-0.00417146678
-0.00411904026
-0.00406440631
-0.00400771321
-0.00394911578
-0.00388877362
-0.00382684947
-0.00376350757
-0.00369891208
-0.00363322554
-0.00356660749
-0.00349921324
-0.00343119274
-0.00336268979
-0.00329384134
-0.00322477702
-0.00315561888
-0.00308648138
-0.00301747145
-0.00294868883
-0.00288022652
-0.00281217101
-0.00274460209
-0.00267759195
-0.00261120308
-0.00254548944
-0.00248050561
-0.00241628913
-0.00235284405
-0.00229019152
-0.00222833025
-0.00216738066
-0.00210739581
-0.00204842543
-0.00199052379
-0.00193374641
-0.00187814686
-0.00182377671
-0.00177068747
-0.00171893018
-0.00166855401
-0.0016196053
-0.00157212652
-0.00152615481
-0.00148172069
-0.00143884672
-0.00139754638
-0.00135782314
-0.00131966982
-0.00128306836
-0.00124798991
-0.00121439535
-0.00118223609
-0.00115145524
-0.00112198897
-0.00109376803
-0.0010667193
-0.00104076741
-0.0010158362
-0.000991850084
-0.00096873526
-0.000946420704
-0.000924838962
-0.000903926753
-0.000883625392
-0.000863881026
-0.000844644715
-0.00082587239
-0.000807524687
-0.000789566707
-0.000771967733
-0.000754700948
-0.000737743091
-0.00072107402
-0.0007046762
-0.000688534374
-0.000672635427
-0.000656968029
-0.000641522055
-0.000626288224
-0.00061125804
-0.00059642388
-0.000581778876
-0.000567316474
-0.000553030348
-0.000538913557
-0.000524957481
-0.000511148478
-0.000497503774
-0.00048400383
-0.000470648304
-0.000457438729
-0.000444371775
-0.000431444947
-0.00041865694
-0.000406005988
-0.000393489875
-0.000381106209
-0.000368852429
-0.000356725766
-0.000344723239
-0.000332841692
-0.000321077828
-0.000309428239
-0.000297889427
-0.000286457831
-0.000275129846
-0.000263901833
-0.000252770132
-0.000241731065
-0.000230780939
-0.000219916049
-0.000209132682
-0.000198427115
-0.000187795614
-0.000177234445
-0.000166739863
-0.000156308126
-0.00014593549
-0.000135618225
-0.000125352613
-0.000115134964
-0.000104961611
-9.48289133e-05
-8.47332634e-05
-7.46710629e-05
-6.46388212e-05
-5.46327839e-05
-4.46502389e-05
-3.46851333e-05
-2.47441169e-05
-1.47962196e-05
-4.97338886e-06
-0.0041477205
-0.00414872761
-0.00415114685
-0.00415500855
-0.00416016086
-0.00416650056
-0.00417401817
-0.00418271478
-0.00419256741
-0.00420360901
-0.00421569968
-0.00422880995
-0.00424289512
-0.00425792219
-0.00427384092
-0.00429058958
-0.00430809828
-0.0043262879
-0.00434507072
-0.00436435059
-0.00438402263
-0.00440397508
-0.00442408433
-0.00444426394
-0.00446434062
-0.004484234
-0.00450378469
-0.00452285001
-0.00454128905
-0.00455895453
-0.00457569488
-0.00459135501
-0.00460577638
-0.00461879766
-0.00463025567
-0.00463998675
-0.00464782803
-0.00465361889
-0.00465720302
-0.00465843132
-0.00465716466
-0.00465327516
-0.00464664711
-0.00463717853
-0.00462478271
-0.00460938914
-0.0045909438
-0.00456940915
-0.00454476393
-0.00451700309
-0.00448613799
-0.00445219694
-0.00441522562
-0.0043752873
-0.00433246264
-0.00428684892
-0.00423855893
-0.00418771951
-0.00413446982
-0.0040789595
-0.0040213468
-0.00396179664
-0.00390047872
-0.00383756562
-0.00377323096
-0.00370764767
-0.00364098625
-0.00357341333
-0.00350509033
-0.00343617232
-0.00336680717
-0.00329713481
-0.00322728678
-0.00315738594
-0.00308754651
-0.0030178741
-0.00294846596
-0.00287941138
-0.00281079188
-0.00274268132
-0.00267514573
-0.00260824271
-0.00254202099
-0.00247652076
-0.00241177508
-0.00234781878
-0.00228468292
-0.00222241351
-0.00216104648
-0.00210064153
-0.00204125176
-0.0019829282
-0.00192572475
-0.0018696973
-0.00181490235
-0.001761397
-0.00170923864
-0.0016584837
-0.00160918639
-0.00156139723
-0.00151516128
-0.0014705165
-0.00142749197
-0.00138610643
-0.00134636701
-0.00130826841
-0.0012717925
-0.00123690844
-0.00120357325
-0.00117173289
-0.00114132363
-0.00111227381
-0.00108450571
-0.00105793746
-0.00103248497
-0.00100806376
-0.000984590506
-0.00096198443
-0.000940168445
-0.000919069991
-0.000898621656
-0.000878761551
-0.000859433487
-0.000840586961
-0.000822177025
-0.000804164044
-0.000786513372
-0.000769194975
-0.000752182995
-0.00073545528
-0.000718992928
-0.000702779876
-0.000686802507
-0.000671049248
-0.000655510163
-0.000640176623
-0.000625040976
-0.000610096114
-0.00059533565
-0.000580753213
-0.000566342409
-0.000552097131
-0.000538013269
-0.000524089803
-0.000510339832
-0.00049672099
-0.000483257613
-0.000469939513
-0.000456764116
-0.000443730062
-0.000430835046
-0.00041807717
-0.000405454549
-0.000392965026
-0.000380606254
-0.000368375738
-0.00035627083
-0.000344288718
-0.000332426441
-0.000320680907
-0.0003090489
-0.000297527093
-0.000286112065
-0.000274800316
-0.000263588277
-0.000252472336
-0.000241448839
-0.000230514105
-0.000219664432
-0.000208896106
-0.000198205406
-0.000187588601
-0.000177041964
-0.000166561762
-0.000156144267
-0.000145785758
-0.000135482518
-0.000125230845
-0.000115027051
-0.000104867466
-9.47484305e-05
-8.46663089e-05
-7.46174552e-05
-6.45983148e-05
-5.46050321e-05
-4.46347776e-05
-3.46811157e-05
-2.47503017e-05
-1.48079568e-05
-4.98549179e-06
-0.00413809905
-0.00413914026
-0.00414162302
-0.00414557573
-0.00415084401
-0.00415732722
-0.00416502284
-0.0041739419
-0.00418405402
-0.00419526139
-0.0042076527
-0.00422112008
-0.00423563655
-0.00425114696
-0.00426759282
-0.00428491275
-0.00430303579
-0.00432188149
-0.0043413614
-0.00436138133
-0.00438184662
-0.00440266086
-0.00442371296
-0.00444483454
-0.00446589818
-0.00448679352
-0.00450738982
-0.00452755163
-0.00454712391
-0.00456595176
-0.00458387845
-0.0046007424
-0.00461637742
-0.00463061354
-0.0046432781
-0.00465419721
-0.00466319774
-0.00467010957
-0.00467476734
-0.00467701147
-0.00467669006
-0.00467366252
-0.00466780311
-0.00465900264
-0.00464716876
-0.00463222589
-0.00461411509
-0.00459279421
-0.00456823834
-0.00454044025
-0.00450941069
-0.00447517885
-0.00443779287
-0.00439732013
-0.00435384699
-0.00430747807
-0.00425833496
-0.00420655456
-0.00415228711
-0.00409569416
-0.00403694636
-0.00397622129
-0.00391370132
-0.00384957144
-0.0037840172
-0.0037172227
-0.00364936876
-0.00358063124
-0.0035111796
-0.00344117565
-0.00337077259
-0.00330011428
-0.00322933477
-0.00315855806
-0.00308789812
-0.00301745902
-0.00294733528
-0.00287761228
-0.00280836669
-0.0027396668
-0.00267157292
-0.00260413753
-0.00253740593
-0.0024714178
-0.00240620777
-0.00234180679
-0.00227824783
-0.00221556209
-0.00215379402
-0.00209299193
-0.00203320416
-0.00197448104
-0.00191687676
-0.00186044876
-0.00180525694
-0.00175136346
-0.00169883206
-0.00164772673
-0.00159811005
-0.00155004136
-0.00150357459
-0.00145875599
-0.00141562197
-0.00137419709
-0.00133449241
-0.00129650439
-0.00126021433
-0.00122558847
-0.00119257876
-0.00116112421
-0.00113115263
-0.00110258287
-0.0010753271
-0.00104929328
-0.00102438743
-0.00100051579
-0.000977586685
-0.000955512086
-0.000934208829
-0.000913599499
-0.000893613019
-0.000874184953
-0.000855257571
-0.000836779723
-0.000818706559
-0.000800999143
-0.000783623972
-0.000766552463
-0.000749760423
-0.000733227516
-0.00071693675
-0.000700873981
-0.000685027417
-0.000669387203
-0.000653945055
-0.000638693873
-0.000623627386
-0.000608739858
-0.000594026265
-0.000579482792
-0.000565107163
-0.00055089796
-0.000536851588
-0.000522958464
-0.000509219195
-0.000495628993
-0.000482187546
-0.00046889318
-0.000455742577
-0.000442733566
-0.000429864067
-0.000417132039
-0.000404535453
-0.000392072133
-0.000379739721
-0.000367535689
-0.00035545733
-0.000343501758
-0.000331665931
-0.000319946675
-0.000308340708
-0.000296844661
-0.000285455095
-0.000274168515
-0.000262981379
-0.000251890106
-0.000240891081
-0.000229980661
-0.000219155174
-0.000208410935
-0.000197744237
-0.00018715136
-0.000176628577
-0.000166172153
-0.00015577835
-0.000145443433
-0.000135163672
-0.000124935345
-0.000114754745
-0.000104618177
-9.45219566e-05
-8.44624184e-05
-7.4435881e-05
-6.44387464e-05
-5.44671134e-05
-4.45181022e-05
-3.45853605e-05
-2.46754326e-05
-1.47562232e-05
-4.96212325e-06
-0.0041267399
-0.00412781022
-0.0041303582
-0.00413441869
-0.00413984205
-0.00414653034
-0.00415448263
-0.00416370825
-0.0041741847
-0.00418590792
-0.00419873351
-0.00421270285
-0.00422775442
-0.00424384187
-0.00426091266
-0.00427890413
-0.00429774716
-0.00431736518
-0.00433767374
-0.00435857925
-0.00437997317
-0.00440174208
-0.00442372831
-0.0044458751
-0.00446810694
-0.00449021282
-0.00451207312
-0.0045335273
-0.00455442959
-0.00457462622
-0.00459395202
-0.004612236
-0.0046293023
-0.00464497044
-0.00465905655
-0.00467137487
-0.00468173944
-0.00468996615
-0.00469587618
-0.0046993
-0.00470007966
-0.00469806925
-0.00469313478
-0.00468515479
-0.00467402254
-0.00465964902
-0.00464196502
-0.00462092143
-0.00459648898
-0.00456865808
-0.00453743909
-0.00450286291
-0.00446498151
-0.00442386805
-0.00437961655
-0.00433234091
-0.00428217354
-0.00422926355
-0.00417377463
-0.00411588272
-0.00405577353
-0.00399364006
-0.00392968004
-0.00386409348
-0.00379708027
-0.00372883796
-0.00365955961
-0.00358943196
-0.00351863383
-0.00344733473
-0.00337569388
-0.00330385952
-0.00323196837
-0.00316014555
-0.00308850463
-0.00301714786
-0.00294616662
-0.002875642
-0.00280564534
-0.00273623896
-0.00266747683
-0.00259940537
-0.00253206436
-0.00246548834
-0.00239970806
-0.00233475205
-0.00227065118
-0.00220743932
-0.00214515059
-0.00208382503
-0.00202350889
-0.00196425228
-0.00190610973
-0.00184914098
-0.00179341057
-0.00173898735
-0.00168594346
-0.00163435287
-0.0015842894
-0.00153582427
-0.00148902339
-0.0014439444
-0.00140063378
-0.00135912419
-0.00131943226
-0.00128155704
-0.00124547924
-0.00121116136
-0.00117854869
-0.00114757096
-0.0011181448
-0.00109017647
-0.00106356486
-0.00103820454
-0.00101398864
-0.000990811387
-0.000968570372
-0.000947168275
-0.000926514231
-0.000906524722
-0.000887124105
-0.000868244808
-0.000849827238
-0.000831819476
-0.000814176818
-0.00079686121
-0.000779840607
-0.000763088318
-0.000746582348
-0.000730304739
-0.000714240954
-0.000698379312
-0.000682710471
-0.000667226999
-0.000651922991
-0.000636793724
-0.000621835366
-0.000607044749
-0.000592419044
-0.000577955158
-0.000563649587
-0.000549499916
-0.000535507273
-0.000521669713
-0.000507972638
-0.000494424475
-0.000481022714
-0.000467765403
-0.00045465054
-0.000441676287
-0.000428840751
-0.000416141946
-0.000403577809
-0.000391146145
-0.000378844596
-0.000366670656
-0.000354621682
-0.000342694892
-0.000330887361
-0.000319196035
-0.000307617736
-0.000296149174
-0.000284786961
-0.000273527625
-0.000262367628
-0.00025130338
-0.000240331251
-0.000229447576
-0.000218648666
-0.000207930821
-0.000197290325
-0.000186723456
-0.000176226489
-0.000165795698
-0.000155427358
-0.000145117748
-0.000134863152
-0.000124659859
-0.000114504165
-0.000104392374
-9.43207886e-05
-8.42857237e-05
-7.42834695e-05
-6.43103943e-05
-5.43625531e-05
-4.44370374e-05
-3.45273445e-05
-2.46398906e-05
-1.47405e-05
-4.9625934e-06
-0.00411359254
-0.00411469591
-0.00411732153
-0.00412150491
-0.00412709342
-0.00413398879
-0.00414219228
-0.00415171755
-0.00416253987
-0.00417459861
-0.0041879288
-0.00420242861
-0.00421807021
-0.00423480506
-0.00425257721
-0.00427132601
-0.00429098232
-0.0043114678
-0.00433269548
-0.00435457237
-0.00437700495
-0.00439987848
-0.00442314687
-0.00444660669
-0.00447014912
-0.0044936659
-0.00451697337
-0.00453993788
-0.00456240334
-0.00458420124
-0.00460515987
-0.00462510092
-0.0046438387
-0.00466118152
-0.00467693314
-0.00469089459
-0.00470286695
-0.0047126542
-0.00472006477
-0.00472491261
-0.00472701994
-0.00472622092
-0.00472236494
-0.00471531933
-0.0047049707
-0.00469122451
-0.00467400476
-0.00465325487
-0.00462893913
-0.00460104368
-0.00456957724
-0.00453457176
-0.00449608283
-0.0044541898
-0.00440899534
-0.0043606244
-0.0043092226
-0.00425495412
-0.00419799929
-0.00413855181
-0.00407681592
-0.00401300345
-0.00394733093
-0.0038800167
-0.00381127817
-0.00374132921
-0.00367037778
-0.00359862378
-0.00352625732
-0.00345345721
-0.00338038989
-0.00330720868
-0.00323405334
-0.00316105002
-0.00308831145
-0.00301593734
-0.00294401507
-0.00287262048
-0.00280181872
-0.00273166528
-0.00266220697
-0.00259348308
-0.00252552656
-0.00245836548
-0.00239202461
-0.00232652754
-0.00226189906
-0.00219816274
-0.00213535052
-0.00207349821
-0.00201264676
-0.00195284353
-0.00189414308
-0.00183660749
-0.00178030624
-0.00172531565
-0.00167171782
-0.00161959883
-0.00156904635
-0.00152014653
-0.00147298052
-0.00142762056
-0.00138412614
-0.00134254045
-0.0013028873
-0.00126516909
-0.00122936569
-0.00119543463
-0.00116331236
-0.00113291663
-0.00110414957
-0.00107690135
-0.00105105411
-0.0010264858
-0.00100307374
-0.00098069776
-0.000959242833
-0.000938601047
-0.000918673046
-0.000899368891
-0.000880608466
-0.000862321475
-0.000844447127
-0.00082693358
-0.000809737242
-0.000792821966
-0.000776158199
-0.000759722132
-0.000743494877
-0.000727461684
-0.000711611239
-0.00069593502
-0.000680426723
-0.000665081738
-0.000649896686
-0.000634869001
-0.000619996599
-0.000605277666
-0.000590710832
-0.000576295563
-0.000562031755
-0.000547919627
-0.000533972236
-0.000520168575
-0.000506511127
-0.000492998072
-0.000479628919
-0.000466403481
-0.000453320257
-0.000440377526
-0.000427573545
-0.000414906416
-0.000402374105
-0.000389974448
-0.000377705113
-0.000365563587
-0.000353547189
-0.000341653076
-0.000329878264
-0.000318219643
-0.000306673997
-0.00029523801
-0.000283908289
-0.000272681369
-0.000261553727
-0.000250521791
-0.000239581945
-0.000228730539
-0.000217963894
-0.000207278313
-0.000196670076
-0.000186135454
-0.00017567071
-0.000165272099
-0.000154935876
-0.000144658296
-0.00013443562
-0.000124264111
-0.000114140044
-0.0001040597
-9.4019364e-05
-8.4015333e-05
-7.40438807e-05
-6.41013589e-05
-5.418381e-05
-4.4288308e-05
-3.44084137e-05
-2.45506816e-05
-1.46824203e-05
-4.93894363e-06
-0.00409860146
-0.0040997422
-0.00410245731
-0.004106785
-0.00411257044
-0.00411971614
-0.00412822621
-0.0041381153
-0.00414935885
-0.00416192185
-0.00417576549
-0.00419085795
-0.00420715297
-0.00422460355
-0.00424315742
-0.00426275538
-0.00428333084
-0.00430480951
-0.00432710983
-0.0043501421
-0.00437380473
-0.00439799437
-0.00442258246
-0.00444746845
-0.00447252631
-0.00449759039
-0.00452254133
-0.00454721906
-0.00457145777
-0.00459508481
-0.00461791832
-0.00463976771
-0.00466043461
-0.0046797138
-0.00469739455
-0.00471326241
-0.00472710103
-0.00473869455
-0.00474783167
-0.00475431032
-0.00475794051
-0.00475854517
-0.00475596089
-0.00475003931
-0.00474064889
-0.00472767759
-0.0047110357
-0.00469065738
-0.00466650082
-0.00463854842
-0.00460680761
-0.00457131188
-0.00453212147
-0.00448932338
-0.00444303089
-0.00439338226
-0.00434053892
-0.00428468308
-0.0042260149
-0.00416474938
-0.00410111298
-0.00403534019
-0.00396767007
-0.00389834292
-0.00382759702
-0.00375566564
-0.0036827743
-0.00360913833
-0.00353496093
-0.00346043151
-0.00338572453
-0.00331099888
-0.00323639745
-0.00316204724
-0.00308805975
-0.00301453162
-0.00294154546
-0.00286917093
-0.00279746589
-0.00272647761
-0.0026562442
-0.00258679592
-0.00251815674
-0.00245034601
-0.00238338016
-0.00231727435
-0.0022520444
-0.00218771111
-0.00212429675
-0.00206182975
-0.00200034693
-0.00193989363
-0.00188052433
-0.00182230372
-0.00176530698
-0.00170961941
-0.00165533527
-0.00160255575
-0.00155138608
-0.00150193167
-0.00145429347
-0.001408563
-0.00136481706
-0.00132311291
-0.00128348409
-0.00124593752
-0.00121045206
-0.00117697863
-0.0011454421
-0.00111574438
-0.00108776868
-0.00106138441
-0.00103645226
-0.00101282917
-0.000990372789
-0.000968945354
-0.00094841669
-0.000928666464
-0.000909585648
-0.000891077273
-0.000873056611
-0.000855450887
-0.000838198636
-0.000821248818
-0.000804559789
-0.000788098208
-0.000771837919
-0.00075575888
-0.000739846162
-0.000724089017
-0.000708480056
-0.00069301452
-0.000677689653
-0.000662504201
-0.000647458032
-0.000632551831
-0.000617786864
-0.000603164478
-0.000588685153
-0.000574347788
-0.000560149473
-0.000546079251
-0.000532193318
-0.000518441476
-0.00050482922
-0.000491360618
-0.000478034433
-0.000464850076
-0.000451806827
-0.000438903424
-0.000426138366
-0.000413509938
-0.000401016218
-0.000388655072
-0.000376424172
-0.000364321019
-0.000352342943
-0.000340487114
-0.000328750558
-0.000317130173
-0.00030562274
-0.000294224938
-0.000282933358
-0.000271744519
-0.000260654873
-0.000249660827
-0.000238758744
-0.000227944954
-0.000217215761
-0.000206567454
-0.000195996304
-0.000185498575
-0.00017507053
-0.000164708428
-0.000154408528
-0.000144167097
-0.000133980401
-0.000123844712
-0.000113756307
-0.000103711467
-9.37064691e-05
-8.37375996e-05
-7.38011178e-05
-6.3893361e-05
-5.40103563e-05
-4.41491797e-05
-3.43033345e-05
-2.44793496e-05
-1.46432929e-05
-4.92966202e-06
-0.00408170502
-0.00408288763
-0.0040857023
-0.00409018867
-0.00409618735
-0.00410360035
-0.00411243439
-0.00412270568
-0.00413438491
-0.00414740141
-0.00416188052
-0.00417762891
-0.00419464084
-0.00421287999
-0.00423229689
-0.00425283445
-0.00427442774
-0.00429700332
-0.00432047904
-0.00434476527
-0.00436976662
-0.00439537767
-0.00442148665
-0.00444798013
-0.00447473118
-0.00450159121
-0.00452840739
-0.0045550241
-0.0045812736
-0.00460697318
-0.00463193094
-0.00465594536
-0.00467880503
-0.0047002895
-0.00472017092
-0.00473821627
-0.00475419054
-0.00476786018
-0.00477899585
-0.00478737463
-0.00479278295
-0.00479502045
-0.00479390301
-0.00478926471
-0.00478095966
-0.00476886372
-0.0047528752
-0.00473291611
-0.00470893434
-0.00468090568
-0.00464883507
-0.00461275747
-0.00457273845
-0.00452887412
-0.00448129035
-0.00443014133
-0.00437560745
-0.00431789256
-0.00425722073
-0.00419383255
-0.00412798119
-0.0040599283
-0.00398993998
-0.00391828273
-0.00384521974
-0.00377100734
-0.00369589181
-0.00362010664
-0.00354387028
-0.00346738441
-0.00339083267
-0.00331438003
-0.00323817255
-0.0031623376
-0.00308698453
-0.00301220554
-0.00293807694
-0.00286466055
-0.00279200516
-0.00272014819
-0.00264911728
-0.00257893197
-0.00250960542
-0.00244114615
-0.00237355986
-0.0023068514
-0.00224102708
-0.00217609514
-0.00211207004
-0.0020489732
-0.0019868346
-0.00192569498
-0.00186560753
-0.00180663904
-0.00174887073
-0.00169239812
-0.00163733005
-0.00158378639
-0.00153189452
-0.00148178459
-0.00143358349
-0.00138740814
-0.00134335848
-0.0013015107
-0.00126191153
-0.00122457413
-0.00118947606
-0.00115655954
-0.00112573401
-0.00109688051
-0.00106985751
-0.00104450751
-0.00102066384
-0.000998157024
-0.000976820467
-0.000956495126
-0.000937033028
-0.000918299702
-0.00090017559
-0.00088255656
-0.000865353723
-0.000848492709
-0.000831912565
-0.000815564422
-0.000799410042
-0.000783420356
-0.000767574027
-0.000751856118
-0.000736256875
-0.000720770648
-0.000705394953
-0.000690129682
-0.000674976422
-0.00065993787
-0.000645017322
-0.000630218184
-0.000615543733
-0.000600997475
-0.000586583682
-0.00057230635
-0.000558170126
-0.000544195255
-0.000530314763
-0.000516591477
-0.000503012737
-0.000489577856
-0.000476286425
-0.000463137397
-0.00045012984
-0.000437262557
-0.00042453409
-0.000411942754
-0.000399486632
-0.000387163583
-0.000374971251
-0.000362907091
-0.00035096839
-0.000339152283
-0.000327455765
-0.000315875702
-0.000304408846
-0.000293051848
-0.000281801271
-0.000270653608
-0.000259605284
-0.000248652682
-0.000237792142
-0.000227019968
-0.000216332443
-0.000205725835
-0.000195196394
-0.000184740362
-0.000174353981
-0.000164033485
-0.000153775111
-0.000143575101
-0.000133429699
-0.000123335154
-0.000113287726
-0.000103283681
-9.33192874e-05
-8.3390824e-05
-7.34945482e-05
-6.3626798e-05
-5.37836062e-05
-4.39620505e-05
-3.41556899e-05
-2.43711153e-05
-1.45753963e-05
-4.90404117e-06
-0.00406283412
-0.00406406194
-0.00406698428
-0.00407164249
-0.00407787285
-0.00408557774
-0.00409476844
-0.00410546857
-0.00411766682
-0.0041313558
-0.00414634162
-0.0041627555
-0.00418053284
-0.00419962329
-0.00421997564
-0.00424153408
-0.0042642359
-0.00428801034
-0.00431277863
-0.00433845456
-0.00436494402
-0.00439214909
-0.00441995098
-0.00444823294
-0.00447686459
-0.00450570507
-0.00453460399
-0.00456339557
-0.00459190315
-0.00461993711
-0.00464729445
-0.00467376023
-0.00469910761
-0.00472309897
-0.00474548779
-0.00476602091
-0.00478444125
-0.00480049097
-0.00481391552
-0.00482446811
-0.00483191358
-0.00483603074
-0.00483661405
-0.00483347585
-0.00482644879
-0.00481538809
-0.00480017413
-0.00478071505
-0.00475694868
-0.00472884408
-0.00469640314
-0.00465966202
-0.00461869202
-0.00457359945
-0.00452452482
-0.00447164106
-0.00441515111
-0.00435528467
-0.00429229443
-0.00422645165
-0.0041580415
-0.00408735819
-0.00401470009
-0.00394036501
-0.00386464571
-0.00378782574
-0.00371017574
-0.00363195027
-0.00355338526
-0.00347469614
-0.0033960765
-0.00331769764
-0.00323970838
-0.0031622357
-0.00308538566
-0.00300924472
-0.0029338813
-0.00285934761
-0.0027856815
-0.00271290837
-0.00264104322
-0.00257009248
-0.00250005598
-0.00243092893
-0.00236270387
-0.00229537261
-0.00222892852
-0.00216336733
-0.00209869374
-0.00203491775
-0.00197206041
-0.00191015672
-0.00184925741
-0.00178943074
-0.00173076406
-0.00167336452
-0.00161735823
-0.00156288797
-0.0015101091
-0.00145918362
-0.00141027243
-0.00136352631
-0.0013190763
-0.00127702433
-0.00123743513
-0.00120033045
-0.00116568616
-0.00113343271
-0.0011034588
-0.00107561761
-0.00104973493
-0.00102561825
-0.00100306577
-0.000981874808
-0.000961848918
-0.00094280351
-0.000924569884
-0.000906997742
-0.00088995637
-0.000873334708
-0.000857040593
-0.000840999402
-0.000825152316
-0.000809454387
-0.000793872563
-0.000778383764
-0.00076297307
-0.000747632091
-0.000732357532
-0.000717149932
-0.000702012615
-0.000686950807
-0.000671970928
-0.000657080062
-0.000642285636
-0.000627595215
-0.000613016004
-0.000598554161
-0.000584215289
-0.000570005522
-0.000555923668
-0.000541976204
-0.000528159102
-0.00051448472
-0.000500953053
-0.000487562988
-0.000474314874
-0.000461208538
-0.000448243424
-0.000435418645
-0.000422732952
-0.000410184774
-0.000397772259
-0.000385493302
-0.000373345566
-0.000361326504
-0.000349433384
-0.000337663294
-0.000326013169
-0.000314479808
-0.000303059902
-0.00029175004
-0.000280546735
-0.000269446429
-0.000258445512
-0.000247540326
-0.000236727178
-0.000226002346
-0.000215362083
-0.000204802634
-0.000194320228
-0.000183911092
-0.000173571452
-0.000163297536
-0.000153085576
-0.000142931812
-0.000132832489
-0.000122783858
-0.000112782179
-0.000102823715
-9.29047331e-05
-8.30215055e-05
-7.31702844e-05
-6.33474041e-05
-5.3548896e-05
-4.37718479e-05
-3.40098025e-05
-2.42693379e-05
-1.45168097e-05
-4.88690858e-06
-0.00404191387
-0.00404318994
-0.00404622726
-0.00405106884
-0.00405754578
-0.00406556019