/*--------------------------------*- C++ -*----------------------------------*\
| =========                 |                                                 |
| \\      /  F ield         | OpenFOAM: The Open Source CFD Toolbox           |
|  \\    /   O peration     | Version:  v2012                                 |
|   \\  /    A nd           | Website:  www.openfoam.com                      |
|    \\/     M anipulation  |                                                 |
\*---------------------------------------------------------------------------*/
FoamFile
{
    version     2.0;
    format      ascii;
    class       surfaceScalarField;
    location    "2.79";
    object      phi;
}
// * * * * * * * * * * * * * * * * * * * * * * * * * * * * * * * * * * * * * //

dimensions      [0 3 -1 0 0 0 0];
oriented        oriented;


internalField   nonuniform List<scalar> 
56481
(
6.66722468e-07
-1.15756761e-10
6.66869991e-07
-3.48232987e-10
6.67100703e-07
-5.68828898e-10
6.67392514e-07
-7.27661945e-10
6.67711914e-07
-7.81533593e-10
6.68020696e-07
-7.12880734e-10
6.68281545e-07
-5.29099996e-10
6.68460451e-07
-2.52943786e-10
6.68563565e-07
8.11511133e-11
6.68596829e-07
4.27490014e-10
6.68554336e-07
7.5567828e-10
6.68443376e-07
1.03110236e-09
6.68278756e-07
1.23204419e-09
6.68079248e-07
1.34665055e-09
6.67864399e-07
1.37357205e-09
6.67652626e-07
1.31942801e-09
6.67460106e-07
1.19581943e-09
6.67300018e-07
1.01769777e-09
6.67181565e-07
8.04079708e-10
6.67108476e-07
5.80115998e-10
6.67077345e-07
3.77729171e-10
6.67076373e-07
2.32527699e-10
6.67083799e-07
1.7750909e-10
6.67072107e-07
2.32933604e-10
6.67013054e-07
4.02929755e-10
6.66881135e-07
6.71959137e-10
6.66658671e-07
1.00948761e-09
6.66338062e-07
1.37668715e-09
6.65921656e-07
1.73402219e-09
6.65419977e-07
2.04751636e-09
6.64849076e-07
2.29238532e-09
6.64227785e-07
2.45423205e-09
6.63575476e-07
2.52854426e-09
6.62910546e-07
2.51936295e-09
6.62249437e-07
2.43788946e-09
6.61605796e-07
2.30145672e-09
6.60989399e-07
2.13285261e-09
6.60404693e-07
1.95954182e-09
6.59849219e-07
1.81207723e-09
6.59312555e-07
1.72111372e-09
6.58776732e-07
1.71296779e-09
6.5821868e-07
1.80444493e-09
6.57614468e-07
1.99836076e-09
6.56944112e-07
2.28142691e-09
6.56195473e-07
2.62573724e-09
6.55366243e-07
2.99403509e-09
6.54463651e-07
3.34759893e-09
6.53502168e-07
3.6545245e-09
6.52499951e-07
3.89591107e-09
6.51475038e-07
4.06812913e-09
6.504423e-07
4.18073435e-09
6.49411817e-07
4.25112526e-09
6.48388866e-07
4.29808732e-09
6.47375137e-07
4.33648194e-09
6.46370518e-07
4.37455475e-09
6.45374722e-07
4.41409187e-09
6.44388291e-07
4.45255118e-09
6.43412859e-07
4.48579726e-09
6.42450878e-07
4.51024885e-09
6.41505126e-07
4.52387258e-09
6.40578268e-07
4.52611477e-09
6.39672628e-07
4.51725778e-09
6.3879015e-07
4.49772354e-09
6.37932482e-07
4.46764686e-09
6.37101092e-07
4.42677053e-09
6.3629735e-07
4.37455554e-09
6.35522573e-07
4.31034921e-09
6.34778041e-07
4.23349833e-09
6.34065003e-07
4.14340385e-09
6.33384691e-07
4.03951934e-09
6.32738338e-07
3.9213294e-09
6.32127211e-07
3.78834995e-09
6.31552634e-07
3.64013621e-09
6.3101602e-07
3.47629525e-09
6.305189e-07
3.29651303e-09
6.30062958e-07
3.10057262e-09
6.29650086e-07
2.88836134e-09
6.29282494e-07
2.65987495e-09
6.28963005e-07
2.41515848e-09
6.28695831e-07
2.15412711e-09
6.28483635e-07
1.87566854e-09
6.28328414e-07
1.57888485e-09
6.28231078e-07
1.26489234e-09
6.28191609e-07
9.34033088e-10
6.28208161e-07
5.88083801e-10
6.28275695e-07
2.3053432e-10
6.28393742e-07
-1.39293424e-10
6.28597187e-07
-5.14890709e-10
6.28880494e-07
-8.93219737e-10
6.29243543e-07
-1.27860961e-09
6.29685961e-07
-1.66925146e-09
6.3020752e-07
-2.06322068e-09
6.30807833e-07
-2.45846113e-09
6.31486017e-07
-2.85220216e-09
6.32240585e-07
-3.24121984e-09
6.3306936e-07
-3.6220445e-09
6.33969388e-07
-3.99100036e-09
6.34936894e-07
-4.34426265e-09
6.3596729e-07
-4.67794786e-09
6.37055211e-07
-4.98822775e-09
6.38194568e-07
-5.27144737e-09
6.39378619e-07
-5.52424003e-09
6.4060006e-07
-5.74365391e-09
6.41851126e-07
-5.92724974e-09
6.43123712e-07
-6.07318825e-09
6.44409513e-07
-6.18027492e-09
6.4570017e-07
-6.24800528e-09
6.46987428e-07
-6.27655282e-09
6.48263291e-07
-6.26676011e-09
6.49520161e-07
-6.22008982e-09
6.50750973e-07
-6.13856926e-09
6.51949289e-07
-6.02470213e-09
6.53109389e-07
-5.88138924e-09
6.54226315e-07
-5.71183212e-09
6.55295907e-07
-5.51942585e-09
6.56314806e-07
-5.30767243e-09
6.57280441e-07
-5.0800904e-09
6.58190998e-07
-4.84012612e-09
6.59045368e-07
-4.59109275e-09
6.59843098e-07
-4.33611248e-09
6.60584318e-07
-4.07806505e-09
6.61269679e-07
-3.81956362e-09
6.61900281e-07
-3.5629298e-09
6.62477606e-07
-3.31018767e-09
6.63003448e-07
-3.06305691e-09
6.63479851e-07
-2.82296569e-09
6.63909046e-07
-2.59106177e-09
6.64293404e-07
-2.36822334e-09
6.64635404e-07
-2.1550842e-09
6.64937608e-07
-1.95205984e-09
6.6520262e-07
-1.75937327e-09
6.65433045e-07
-1.57708585e-09
6.65631471e-07
-1.40512382e-09
6.65800467e-07
-1.24330283e-09
6.65942585e-07
-1.09135727e-09
6.66060322e-07
-9.48969546e-10
6.66156096e-07
-8.1580292e-10
6.66232244e-07
-6.91533072e-10
6.66291021e-07
-5.75863729e-10
6.66334577e-07
-4.68541698e-10
6.66364886e-07
-3.6937863e-10
6.66383599e-07
-2.78210557e-10
6.66391825e-07
-1.94828255e-10
6.66390047e-07
-1.19006005e-10
6.66378201e-07
-5.03754776e-11
6.66356472e-07
1.12566709e-11
6.66329084e-07
6.67968899e-11
6.66295439e-07
1.17126744e-10
6.66255821e-07
1.6173467e-10
6.66210771e-07
2.01134248e-10
6.66160927e-07
2.3579948e-10
6.66106916e-07
2.66179003e-10
6.66049329e-07
2.9269506e-10
6.65988724e-07
3.15731975e-10
6.65925624e-07
3.35634308e-10
6.65860509e-07
3.52709852e-10
6.6579382e-07
3.6723253e-10
6.6572595e-07
3.79444659e-10
6.6565725e-07
3.89559443e-10
6.65588024e-07
3.97765611e-10
6.65518536e-07
4.04231442e-10
6.65449013e-07
4.09109336e-10
6.65379649e-07
4.12538395e-10
6.65310611e-07
4.14647828e-10
6.65242044e-07
4.15557356e-10
6.65174074e-07
4.1537886e-10
6.65106812e-07
4.14216434e-10
6.65040356e-07
4.12167068e-10
6.64974795e-07
4.09320035e-10
6.64910207e-07
4.05757566e-10
6.64846661e-07
4.01554849e-10
6.6478422e-07
3.96779437e-10
6.64722937e-07
3.91492023e-10
6.6466286e-07
3.8574672e-10
6.64604028e-07
3.79590911e-10
6.64546475e-07
3.73066394e-10
6.64490228e-07
3.66209865e-10
6.64435308e-07
3.59053093e-10
6.64381731e-07
3.51624305e-10
6.64329512e-07
3.43948323e-10
6.64278662e-07
3.36047222e-10
6.64229192e-07
3.27939643e-10
6.64181115e-07
3.196413e-10
6.6413445e-07
3.11162227e-10
6.64089219e-07
3.02512897e-10
6.64045462e-07
2.93661871e-10
6.64003222e-07
2.84705799e-10
6.63962668e-07
2.75060857e-10
6.63923729e-07
2.66867543e-10
2.50123238e-10
6.66705245e-07
-1.54401747e-10
6.66841715e-07
-4.84702778e-10
6.67074865e-07
-8.01978865e-10
6.67386034e-07
-1.03883079e-09
6.67740699e-07
-1.13619929e-09
6.68096233e-07
-1.06841431e-09
6.68410892e-07
-8.43759464e-10
6.68652141e-07
-4.94192235e-10
6.68800705e-07
-6.74126263e-11
6.68832931e-07
3.95263254e-10
6.68766078e-07
8.22531101e-10
6.68615353e-07
1.18182806e-09
6.68401795e-07
1.44560239e-09
6.68149018e-07
1.59942714e-09
6.67881042e-07
1.64154779e-09
6.67620525e-07
1.5799451e-09
6.67387701e-07
1.42864357e-09
6.67199685e-07
1.20571405e-09
6.67069287e-07
9.34477513e-10
6.67002793e-07
6.46609465e-10
6.66997045e-07
3.83477115e-10
6.67037349e-07
1.92224582e-10
6.6709884e-07
1.16017891e-10
6.67148535e-07
1.83238796e-10
6.67150803e-07
4.0066184e-10
6.67072617e-07
7.50145054e-10
6.66889463e-07
1.19264116e-09
6.6658899e-07
1.6771597e-09
6.66171835e-07
2.15117756e-09
6.65649993e-07
2.5693583e-09
6.65043626e-07
2.89875223e-09
6.64377406e-07
3.12045192e-09
6.63677272e-07
3.22867882e-09
6.62968005e-07
3.2286294e-09
6.62271567e-07
3.13432787e-09
6.6160579e-07
2.96723324e-09
6.60983031e-07
2.75561214e-09
6.60408615e-07
2.53395789e-09
6.59879368e-07
2.34132458e-09
6.59382822e-07
2.21765923e-09
6.5889776e-07
2.1980298e-09
6.58396511e-07
2.30569408e-09
6.57849019e-07
2.54585237e-09
6.57228113e-07
2.90233303e-09
6.56514794e-07
3.33905623e-09
6.5570205e-07
3.80677899e-09
6.54795954e-07
4.25369501e-09
6.53813643e-07
4.63683551e-09
6.52778819e-07
4.93073567e-09
6.51716203e-07
5.13074476e-09
6.50646639e-07
5.25029799e-09
6.49584149e-07
5.31361604e-09
6.48535454e-07
5.34678234e-09
6.47501582e-07
5.37035315e-09
6.46480541e-07
5.39559651e-09
6.45469909e-07
5.42472323e-09
6.44468549e-07
5.45391093e-09
6.43477155e-07
5.47719211e-09
6.42497893e-07
5.48951051e-09
6.41533638e-07
5.48812744e-09
6.40587251e-07
5.47250183e-09
6.39661169e-07
5.44333996e-09
6.38757322e-07
5.40157021e-09
6.37877258e-07
5.34771121e-09
6.37022317e-07
5.28171134e-09
6.36193771e-07
5.2031018e-09
6.35392883e-07
5.11123664e-09
6.34620928e-07
5.0054536e-09
6.33879186e-07
4.88514552e-09
6.33168954e-07
4.74975203e-09
6.32491559e-07
4.5987239e-09
6.31848394e-07
4.43151526e-09
6.31240941e-07
4.24758888e-09
6.30670808e-07
4.04642893e-09
6.3013975e-07
3.82757036e-09
6.29649708e-07
3.59061522e-09
6.29202835e-07
3.33523367e-09
6.28801547e-07
3.06116313e-09
6.2844853e-07
2.76817565e-09
6.28146614e-07
2.4560427e-09
6.27897857e-07
2.1244257e-09
6.27703547e-07
1.77319525e-09
6.27565339e-07
1.40309992e-09
6.27485558e-07
1.01381417e-09
6.27468832e-07
6.04810222e-10
6.27523685e-07
1.75681139e-10
6.27647286e-07
-2.62894554e-10
6.27842959e-07
-7.10563976e-10
6.28116906e-07
-1.16716653e-09
6.28471209e-07
-1.63291289e-09
6.28908166e-07
-2.10620819e-09
6.29429045e-07
-2.58409967e-09
6.30034194e-07
-3.06360985e-09
6.30723336e-07
-3.54134402e-09
6.3149547e-07
-4.01335431e-09
6.32348736e-07
-4.47531051e-09
6.33280345e-07
-4.92260966e-09
6.34286542e-07
-5.35045956e-09
6.35362586e-07
-5.75399148e-09
6.36502766e-07
-6.12840824e-09
6.37700453e-07
-6.46913379e-09
6.38948168e-07
-6.77195547e-09
6.40237696e-07
-7.0331817e-09
6.41560214e-07
-7.2497673e-09
6.42906454e-07
-7.41942865e-09
6.44266887e-07
-7.5407077e-09
6.45631916e-07
-7.61303467e-09
6.4699208e-07
-7.63671699e-09
6.48338247e-07
-7.61292686e-09
6.49661792e-07
-7.54363504e-09
6.50954756e-07
-7.43153278e-09
6.52209965e-07
-7.27991167e-09
6.5342113e-07
-7.09255353e-09
6.54582898e-07
-6.87360033e-09
6.55690885e-07
-6.62741271e-09
6.56741668e-07
-6.35845562e-09
6.5773276e-07
-6.07118198e-09
6.58662555e-07
-5.76992112e-09
6.59530265e-07
-5.45880302e-09
6.60335841e-07
-5.14168867e-09
6.61079886e-07
-4.82210996e-09
6.61763566e-07
-4.50324372e-09
6.62388522e-07
-4.18788592e-09
6.62956784e-07
-3.87844961e-09
6.6347069e-07
-3.57696282e-09
6.63932815e-07
-3.28509017e-09
6.64345905e-07
-3.00415242e-09
6.64712825e-07
-2.73514306e-09
6.650365e-07
-2.47875878e-09
6.65319875e-07
-2.23543539e-09
6.65565885e-07
-2.00538339e-09
6.65777429e-07
-1.78862941e-09
6.65957346e-07
-1.58504098e-09
6.66108384e-07
-1.39434109e-09
6.66233177e-07
-1.21614976e-09
6.66334239e-07
-1.050032e-09
6.66413958e-07
-8.95521399e-10
6.66474565e-07
-7.52140398e-10
6.66518118e-07
-6.19416427e-10
6.66546445e-07
-4.96869459e-10
6.6656112e-07
-3.84052799e-10
6.66563499e-07
-2.8058988e-10
6.66554852e-07
-1.86181763e-10
6.66536475e-07
-1.00628106e-10
6.66509774e-07
-2.36750401e-11
6.66475789e-07
4.52419103e-11
6.66435269e-07
1.07316629e-10
6.66389402e-07
1.62994314e-10
6.66338698e-07
2.12437892e-10
6.66283715e-07
2.56118001e-10
6.6622497e-07
2.94544419e-10
6.66162972e-07
3.28176689e-10
6.66098217e-07
3.57450453e-10
6.66031172e-07
3.82776893e-10
6.65962272e-07
4.04533701e-10
6.65891919e-07
4.23062839e-10
6.65820479e-07
4.38672773e-10
6.65748283e-07
4.5164064e-10
6.65675628e-07
4.62214171e-10
6.65602778e-07
4.7061575e-10
6.65529964e-07
4.77045554e-10
6.65457388e-07
4.81685431e-10
6.65385225e-07
4.84700891e-10
6.65313629e-07
4.86244584e-10
6.65242729e-07
4.86456678e-10
6.65172641e-07
4.85466901e-10
6.65103463e-07
4.83394821e-10
6.65035279e-07
4.80350863e-10
6.64968163e-07
4.76435845e-10
6.64902179e-07
4.71742028e-10
6.6483738e-07
4.66353376e-10
6.64773815e-07
4.60345137e-10
6.64711522e-07
4.53784938e-10
6.64650535e-07
4.46733227e-10
6.64590883e-07
4.39243092e-10
6.64532588e-07
4.31361551e-10
6.64475668e-07
4.23130097e-10
6.64420136e-07
4.14584663e-10
6.64366003e-07
4.05756933e-10
6.64313277e-07
3.9667432e-10
6.64261964e-07
3.87360617e-10
6.64212069e-07
3.7783517e-10
6.64163596e-07
3.68113691e-10
6.64116553e-07
3.58204999e-10
6.64070945e-07
3.48120978e-10
6.64026783e-07
3.37824094e-10
6.63984032e-07
3.27456545e-10
6.63942736e-07
3.1635735e-10
6.63902296e-07
3.07307229e-10
2.88920634e-10
6.66714533e-07
-2.02234348e-10
6.66855571e-07
-6.25741406e-10
6.67088962e-07
-1.03536975e-09
6.67395759e-07
-1.34562817e-09
6.6774256e-07
-1.48299944e-09
6.68089414e-07
-1.41526865e-09
6.68397012e-07
-1.15135721e-09
6.68632563e-07
-7.29743745e-10
6.68773755e-07
-2.0860432e-10
6.68819795e-07
3.49222762e-10
6.68767805e-07
8.74521926e-10
6.6863155e-07
1.31808219e-09
6.68431477e-07
1.64567544e-09
6.68190817e-07
1.84008767e-09
6.67933212e-07
1.89915261e-09
6.67681026e-07
1.83213087e-09
6.67454244e-07
1.6554255e-09
6.67269659e-07
1.39029959e-09
6.67139723e-07
1.06441302e-09
6.67070701e-07
7.15632251e-10
6.67060488e-07
3.93689755e-10
6.67096676e-07
1.56036429e-10
6.67154747e-07
5.79469059e-11
6.6720057e-07
1.37415392e-10
6.67199019e-07
4.02213467e-10
6.67119028e-07
8.301355e-10
6.66938107e-07
1.37356298e-09
6.66644732e-07
1.97053475e-09
6.66238962e-07
2.55694722e-09
6.65731274e-07
3.07704653e-09
6.65139939e-07
3.49008686e-09
6.64487843e-07
3.77254841e-09
6.63799516e-07
3.91700569e-09
6.63098788e-07
3.92935752e-09
6.62407068e-07
3.82604695e-09
6.61742002e-07
3.63230015e-09
6.61116139e-07
3.38147435e-09
6.60535436e-07
3.11466126e-09
6.59997672e-07
2.87908817e-09
6.59491395e-07
2.72393637e-09
6.58996245e-07
2.69318044e-09
6.58485309e-07
2.81662951e-09
6.57929388e-07
3.10177381e-09
6.5730223e-07
3.52949044e-09
6.56585449e-07
4.05583717e-09
6.55771878e-07
4.62034999e-09
6.54866533e-07
5.15904066e-09
6.53884902e-07
5.61846661e-09
6.52849021e-07
5.96661619e-09
6.51782461e-07
6.19730444e-09
6.50705698e-07
6.3270615e-09
6.49633131e-07
6.38618336e-09
6.48572345e-07
6.40756836e-09
6.47525368e-07
6.41732988e-09
6.46491052e-07
6.42991263e-09
6.4546751e-07
6.44826531e-09
6.44453808e-07
6.46761282e-09
6.43450604e-07
6.48039539e-09
6.42459918e-07
6.48019736e-09
6.41484458e-07
6.46358702e-09
6.40526966e-07
6.42999421e-09
6.39589805e-07
6.38050098e-09
6.3867486e-07
6.31651439e-09
6.37783639e-07
6.23893265e-09
6.36917432e-07
6.14791827e-09
6.36077452e-07
6.04308232e-09
6.35264901e-07
5.92378696e-09
6.34481e-07
5.78935455e-09
6.33726986e-07
5.63915978e-09
6.33004121e-07
5.47261675e-09
6.32313715e-07
5.28912979e-09
6.31657152e-07
5.08807873e-09
6.31035918e-07
4.86882234e-09
6.30451635e-07
4.63071247e-09
6.29906078e-07
4.37312758e-09
6.29401201e-07
4.09549154e-09
6.28939157e-07
3.79727775e-09
6.28522302e-07
3.4780189e-09
6.28153176e-07
3.1373014e-09
6.27834461e-07
2.77475742e-09
6.2756883e-07
2.39005699e-09
6.27359043e-07
1.98298198e-09
6.27208563e-07
1.55357968e-09
6.27120459e-07
1.10191889e-09
6.27095865e-07
6.29404298e-10
6.27130916e-07
1.40630078e-10
6.27236734e-07
-3.68713396e-10
6.27418529e-07
-8.9235823e-10
6.27680945e-07
-1.42958291e-09
6.28026364e-07
-1.97833185e-09
6.28456545e-07
-2.53638928e-09
6.28973248e-07
-3.10080275e-09
6.2957759e-07
-3.66795192e-09
6.30269881e-07
-4.23363461e-09
6.31049596e-07
-4.79306977e-09
6.31915273e-07
-5.3409877e-09
6.3286441e-07
-5.87174617e-09
6.33893399e-07
-6.3794484e-09
6.3499749e-07
-6.85808308e-09
6.36170791e-07
-7.30170836e-09
6.37406299e-07
-7.70464221e-09
6.38695989e-07
-8.06164582e-09
6.40030934e-07
-8.36812632e-09
6.41401468e-07
-8.6203012e-09
6.42797389e-07
-8.81534955e-09
6.4420818e-07
-8.95149914e-09
6.45623253e-07
-9.02810736e-09
6.47032185e-07
-9.04564863e-09
6.48424952e-07
-9.00569436e-09
6.49792141e-07
-8.91082364e-09
6.51125124e-07
-8.76451582e-09
6.52416203e-07
-8.57099076e-09
6.53658709e-07
-8.33506015e-09
6.54847065e-07
-8.06195602e-09
6.559768e-07
-7.75714788e-09
6.57044539e-07
-7.42619479e-09
6.58047956e-07
-7.0745986e-09
6.58985701e-07
-6.70766652e-09
6.59857318e-07
-6.33041919e-09
6.60663138e-07
-5.94750901e-09
6.61404181e-07
-5.56315298e-09
6.62082045e-07
-5.18110738e-09
6.62698803e-07
-4.80464433e-09
6.63256909e-07
-4.4365559e-09
6.63759104e-07
-4.07915768e-09
6.64208332e-07
-3.73431829e-09
6.64607668e-07
-3.40348835e-09
6.64960257e-07
-3.08773157e-09
6.6526927e-07
-2.78777156e-09
6.65537866e-07
-2.50403224e-09
6.65769156e-07
-2.23667344e-09
6.65966161e-07
-1.98563425e-09
6.66131796e-07
-1.75067543e-09
6.66268868e-07
-1.53141318e-09
6.66380058e-07
-1.32734031e-09
6.66467916e-07
-1.13788984e-09
6.66534848e-07
-9.62453221e-10
6.66583145e-07
-8.00437676e-10
6.66614987e-07
-6.51258027e-10
6.66632433e-07
-5.14315617e-10
6.66637431e-07
-3.89050255e-10
6.66631733e-07
-2.74892765e-10
6.66616768e-07
-1.7121617e-10
6.66593544e-07
-7.7404233e-11
6.66562494e-07
7.37509712e-12
6.66523707e-07
8.40291873e-11
6.66478553e-07
1.52470434e-10
6.66428043e-07
2.13503672e-10
6.66372858e-07
2.67622962e-10
6.66313605e-07
3.15371701e-10
6.66250862e-07
3.57287058e-10
6.66185166e-07
3.93872536e-10
6.66117014e-07
4.25603013e-10
6.66046866e-07
4.5292432e-10
6.6597515e-07
4.76249658e-10
6.65902255e-07
4.95957584e-10
6.65828535e-07
5.12393672e-10
6.65754303e-07
5.25872355e-10
6.65679839e-07
5.36678061e-10
6.65605386e-07
5.45068359e-10
6.65531156e-07
5.5127601e-10
6.65457329e-07
5.55512195e-10
6.65384062e-07
5.57967995e-10
6.65311489e-07
5.58818074e-10
6.65239724e-07
5.5822114e-10
6.65168868e-07
5.56322581e-10
6.65099008e-07
5.53255148e-10
6.65030218e-07
5.49140538e-10
6.64962565e-07
5.44089244e-10
6.64896105e-07
5.38202094e-10
6.64830888e-07
5.31570811e-10
6.64766955e-07
5.24277712e-10
6.64704343e-07
5.16397057e-10
6.64643081e-07
5.07995549e-10
6.64583192e-07
4.99132069e-10
6.64524694e-07
4.89859022e-10
6.64467601e-07
4.80222838e-10
6.64411922e-07
4.70263723e-10
6.64357662e-07
4.60016962e-10
6.64304824e-07
4.49512758e-10
6.64253407e-07
4.38776939e-10
6.64203413e-07
4.27830077e-10
6.64154838e-07
4.16688652e-10
6.64107681e-07
4.05361666e-10
6.6406194e-07
3.93862414e-10
6.64017615e-07
3.82148793e-10
6.63974695e-07
3.70376739e-10
6.63933268e-07
3.57784347e-10
6.63893251e-07
3.47323692e-10
3.26169824e-10
6.66710755e-07
-2.46289653e-10
6.66851807e-07
-7.66793126e-10
6.67091551e-07
-1.27511391e-09
6.67413483e-07
-1.66755976e-09
6.67783372e-07
-1.85288838e-09
6.68157595e-07
-1.78949185e-09
6.68491971e-07
-1.48573303e-09
6.68749159e-07
-9.86931531e-10
6.68902278e-07
-3.61724074e-10
6.68948881e-07
3.02620121e-10
6.68889587e-07
9.33815357e-10
6.68738847e-07
1.46882299e-09
6.68518391e-07
1.86613102e-09
6.68253948e-07
2.10453109e-09
6.67972121e-07
2.18097937e-09
6.67698298e-07
2.10595399e-09
6.67455362e-07
1.89836162e-09
6.67262648e-07
1.5830128e-09
6.67134422e-07
1.19263977e-09
6.67077338e-07
7.72715504e-10
6.67087273e-07
3.83755329e-10
6.67147745e-07
9.55641901e-11
6.67233552e-07
-2.78604037e-11
6.67312815e-07
5.81526983e-11
6.67347646e-07
3.67382342e-10
6.67301422e-07
8.76359795e-10
6.67146375e-07
1.52861019e-09
6.66867682e-07
2.24922779e-09
6.66464681e-07
2.95994835e-09
6.65948978e-07
3.59274884e-09
6.6534121e-07
4.09785524e-09
6.64667369e-07
4.44638916e-09
6.63955424e-07
4.62895094e-09
6.63232636e-07
4.65214568e-09
6.62523559e-07
4.53512318e-09
6.61848391e-07
4.30746856e-09
6.61221289e-07
4.00857658e-09
6.60648582e-07
3.68736784e-09
6.60127216e-07
3.40045472e-09
6.59644005e-07
3.20714707e-09
6.59176276e-07
3.1609093e-09
6.58694282e-07
3.29862411e-09
6.58165452e-07
3.6306038e-09
6.57559953e-07
4.13498906e-09
6.56856331e-07
4.75945953e-09
6.56045655e-07
5.43102514e-09
6.55132893e-07
6.07180337e-09
6.54135043e-07
6.61631684e-09
6.5307664e-07
7.02501905e-09
6.51984025e-07
7.28991886e-09
6.50880102e-07
7.43098444e-09
6.49780978e-07
7.48530778e-09
6.48695116e-07
7.49342999e-09
6.47624714e-07
7.48773169e-09
6.46568331e-07
7.48629629e-09
6.45523595e-07
7.49300134e-09
6.44489107e-07
7.50210054e-09
6.43465187e-07
7.50431503e-09
6.42453656e-07
7.4917287e-09
6.41457124e-07
7.46011887e-09
6.40478272e-07
7.40884654e-09
6.395194e-07
7.33937293e-09
6.38582309e-07
7.25360537e-09
6.376684e-07
7.15284167e-09
6.3677885e-07
7.03746834e-09
6.35914757e-07
6.90717565e-09
6.35077217e-07
6.7613262e-09
6.34267359e-07
6.59921313e-09
6.33486345e-07
6.42017357e-09
6.32735389e-07
6.22357257e-09
6.32015777e-07
6.00874195e-09
6.31328897e-07
5.77495878e-09
6.30676272e-07
5.52144754e-09
6.30059587e-07
5.24739702e-09
6.29480714e-07
4.95200099e-09
6.28941722e-07
4.63448375e-09
6.28444888e-07
4.29411103e-09
6.27992697e-07
3.93021028e-09
6.27587819e-07
3.54217962e-09
6.2723308e-07
3.12949562e-09
6.26931394e-07
2.69174386e-09
6.26685698e-07
2.22867758e-09
6.26498958e-07
1.74032002e-09
6.26373893e-07
1.22698308e-09
6.26314004e-07
6.89293305e-10
6.26327435e-07
1.27199815e-10
6.26414087e-07
-4.55365422e-10
6.26579538e-07
-1.05780937e-09
6.2682745e-07
-1.67749526e-09
6.27161684e-07
-2.31256558e-09
6.27585473e-07
-2.96017855e-09
6.28101362e-07
-3.61669125e-09
6.28711189e-07
-4.27777935e-09
6.29415983e-07
-4.93842837e-09
6.30215834e-07
-5.59292038e-09
6.31109746e-07
-6.2349004e-09
6.32095507e-07
-6.85750741e-09
6.33169585e-07
-7.45352575e-09
6.34327063e-07
-8.01556088e-09
6.35561625e-07
-8.53627108e-09
6.36865595e-07
-9.00861216e-09
6.38230025e-07
-9.42607574e-09
6.39644849e-07
-9.78295032e-09
6.41099085e-07
-1.00745369e-08
6.42581082e-07
-1.02973467e-08
6.44078801e-07
-1.04492183e-08
6.45580116e-07
-1.05294221e-08
6.47073113e-07
-1.05386453e-08
6.4854638e-07
-1.04789613e-08
6.49989265e-07
-1.0353709e-08
6.51392095e-07
-1.01673458e-08
6.52746339e-07
-9.92523475e-09
6.54044724e-07
-9.63344536e-09
6.55281296e-07
-9.29852771e-09
6.56451426e-07
-8.92727777e-09
6.57551778e-07
-8.52654756e-09
6.58580242e-07
-8.10306192e-09
6.59535827e-07
-7.66325166e-09
6.60418552e-07
-7.21314417e-09
6.61229313e-07
-6.75827018e-09
6.61969751e-07
-6.30359079e-09
6.62642118e-07
-5.85347475e-09
6.63249153e-07
-5.41167961e-09
6.63793963e-07
-4.98136565e-09
6.64279916e-07
-4.56511044e-09
6.64710551e-07
-4.16495346e-09
6.65089502e-07
-3.78243871e-09
6.65420427e-07
-3.41865664e-09
6.65706956e-07
-3.07430082e-09
6.65952642e-07
-2.74971876e-09
6.66160931e-07
-2.44496189e-09
6.66335138e-07
-2.15984159e-09
6.66478434e-07
-1.89397102e-09
6.66593823e-07
-1.64680213e-09
6.66684156e-07
-1.41767401e-09
6.66752121e-07
-1.20585458e-09
6.66800245e-07
-1.01057709e-09
6.6683087e-07
-8.31062763e-10
6.66846062e-07
-6.66450251e-10
6.66847545e-07
-5.15798483e-10
6.66836723e-07
-3.78228322e-10
6.66814814e-07
-2.52983702e-10
6.66782999e-07
-1.39400613e-10
6.66742212e-07
-3.66178449e-11
6.66694768e-07
5.48190437e-11
6.66641777e-07
1.37020339e-10
6.66583826e-07
2.10422106e-10
6.66521595e-07
2.7573384e-10
6.66455696e-07
3.3352185e-10
6.66386699e-07
3.84368969e-10
6.66315122e-07
4.28863854e-10
6.66241435e-07
4.67559862e-10
6.66166063e-07
5.00974577e-10
6.66089395e-07
5.29592444e-10
6.66011782e-07
5.53862945e-10
6.65933541e-07
5.74198526e-10
6.65854959e-07
5.90976015e-10
6.65776293e-07
6.04538614e-10
6.65697773e-07
6.15197447e-10
6.65619606e-07
6.23235262e-10
6.65541974e-07
6.28908608e-10
6.65465035e-07
6.32451177e-10
6.65388928e-07
6.34075039e-10
6.65313771e-07
6.33974363e-10
6.65239667e-07
6.32325526e-10
6.651667e-07
6.29289786e-10
6.65094941e-07
6.25013875e-10
6.6502445e-07
6.19631723e-10
6.64955275e-07
6.13264315e-10
6.64887455e-07
6.06021497e-10
6.64821023e-07
5.98002711e-10
6.64756004e-07
5.89296773e-10
6.64692418e-07
5.79983513e-10
6.64630279e-07
5.70134429e-10
6.64569599e-07
5.59812468e-10
6.64510384e-07
5.49073581e-10
6.6445264e-07
5.37967318e-10
6.64396367e-07
5.26536541e-10
6.64341565e-07
5.14818876e-10
6.64288231e-07
5.02846536e-10
6.64236361e-07
4.90647146e-10
6.64185948e-07
4.78242839e-10
6.64136985e-07
4.656518e-10
6.64089462e-07
4.52884522e-10
6.64043366e-07
4.39958794e-10
6.63998684e-07
4.26830582e-10
6.63955362e-07
4.13699129e-10
6.63913418e-07
3.99727834e-10
6.63872278e-07
3.88463954e-10
3.65711467e-10
6.66712058e-07
-2.91747278e-10
6.66855637e-07
-9.10372453e-10
6.67098285e-07
-1.51776166e-09
6.67422507e-07
-1.99178157e-09
6.67794208e-07
-2.22458951e-09
6.68170948e-07
-2.16623231e-09
6.68510202e-07
-1.82498671e-09
6.68775834e-07
-1.25256381e-09
6.68945405e-07
-5.31294816e-10
6.69000664e-07
2.47360602e-10
6.68947232e-07
9.87248022e-10
6.68800877e-07
1.61517813e-09
6.68584024e-07
2.0829834e-09
6.68322235e-07
2.36632034e-09
6.68041946e-07
2.46126782e-09
6.67768605e-07
2.37929563e-09
6.67525228e-07
2.14173869e-09
6.67331302e-07
1.77693878e-09
6.67201428e-07
1.32251346e-09
6.67143467e-07
8.30676921e-10
6.67156478e-07
3.70743556e-10
6.67229257e-07
2.27856244e-11
6.67328714e-07
-1.27317235e-10
6.6742298e-07
-3.61134597e-11
6.67466761e-07
3.23601681e-10
6.67428183e-07
9.14937579e-10
6.67281466e-07
1.67532694e-09
6.67012806e-07
2.51788792e-09
6.66620865e-07
3.35188959e-09
6.66116045e-07
4.09756834e-09
6.65517911e-07
4.69598945e-09
6.64851693e-07
5.11260672e-09
6.64144947e-07
5.33569755e-09
6.63424814e-07
5.37227892e-09
6.6271593e-07
5.24400659e-09
6.62038738e-07
4.98466059e-09
6.61407892e-07
4.63942323e-09
6.60830547e-07
4.2647127e-09
6.60304607e-07
3.92639389e-09
6.59817556e-07
3.69419806e-09
6.59346812e-07
3.63165408e-09
6.58862245e-07
3.78319057e-09
6.58330784e-07
4.16206484e-09
6.57722176e-07
4.74359685e-09
6.57014567e-07
5.46706848e-09
6.56198505e-07
6.24708809e-09
6.55278309e-07
6.99199929e-09
6.54270407e-07
7.62421871e-09
6.5319907e-07
8.09635542e-09
6.52090806e-07
8.39818287e-09
6.50969054e-07
8.55273689e-09
6.49850646e-07
8.6037153e-09
6.48744764e-07
8.59931231e-09
6.47654167e-07
8.5783288e-09
6.46577769e-07
8.56269414e-09
6.45513371e-07
8.55739989e-09
6.44459619e-07
8.55585186e-09
6.43416822e-07
8.54711181e-09
6.42386769e-07
8.52178171e-09
6.41372035e-07
8.47485283e-09
6.40375255e-07
8.40562732e-09
6.39398661e-07
8.31596663e-09
6.3844396e-07
8.20830608e-09
6.37512432e-07
8.08436947e-09
6.36605116e-07
7.94478502e-09
6.35722964e-07
7.78932747e-09
6.34866937e-07
7.61735351e-09
6.34038037e-07
7.42811277e-09
6.33237325e-07
7.22088563e-09
6.32465931e-07
6.99496611e-09
6.31725084e-07
6.74958986e-09
6.31016134e-07
6.48390806e-09
6.30340591e-07
6.19699056e-09
6.29700141e-07
5.88784727e-09
6.29096665e-07
5.55547653e-09
6.28532253e-07
5.19889585e-09
6.28009208e-07
4.81715611e-09
6.27530051e-07
4.40936749e-09
6.27097516e-07
3.97471466e-09
6.26714541e-07
3.51247094e-09
6.26384249e-07
3.02203512e-09
6.26109953e-07
2.50297434e-09
6.25895192e-07
1.95508044e-09
6.25743731e-07
1.37844469e-09
6.25659442e-07
7.73581912e-10
6.25645259e-07
1.41382758e-10
6.25706584e-07
-5.16690315e-10
6.2584822e-07
-1.19944529e-09
6.26075354e-07
-1.90462883e-09
6.26392384e-07
-2.62959601e-09
6.2680326e-07
-3.37105477e-09
6.27311457e-07
-4.12488843e-09
6.27919785e-07
-4.88610681e-09
6.28630183e-07
-5.64882691e-09
6.29443549e-07
-6.40628611e-09
6.30359553e-07
-7.15090412e-09
6.31376463e-07
-7.87441768e-09
6.32490997e-07
-8.56805989e-09
6.33698214e-07
-9.22277762e-09
6.34991464e-07
-9.82952145e-09
6.36362412e-07
-1.037956e-08
6.3780113e-07
-1.08647932e-08
6.39296275e-07
-1.12780955e-08
6.40835342e-07
-1.16136039e-08
6.42404976e-07
-1.18669811e-08
6.43991333e-07
-1.20355752e-08
6.45580463e-07
-1.21185518e-08
6.47158694e-07
-1.21168768e-08
6.48712998e-07
-1.20332652e-08
6.50231307e-07
-1.18720178e-08
6.51702779e-07
-1.16388173e-08
6.5311799e-07
-1.13404464e-08
6.54469064e-07
-1.0984519e-08
6.55749721e-07
-1.05791853e-08
6.56955275e-07
-1.01328309e-08
6.58082562e-07
-9.65383501e-09
6.59129844e-07
-9.15034387e-09
6.60096663e-07
-8.63007043e-09
6.60983685e-07
-8.10016681e-09
6.61792536e-07
-7.56712103e-09
6.62525627e-07
-7.03668165e-09
6.63185995e-07
-6.51384283e-09
6.63777151e-07
-6.00283587e-09
6.64302944e-07
-5.50715843e-09
6.64767438e-07
-5.02960433e-09
6.6517481e-07
-4.57232558e-09
6.65529263e-07
-4.13689129e-09
6.65834952e-07
-3.72434604e-09
6.66095936e-07
-3.33528423e-09
6.66316132e-07
-2.96991482e-09
6.66499289e-07
-2.62811929e-09
6.66648962e-07
-2.30951489e-09
6.66768498e-07
-2.01350657e-09
6.66861029e-07
-1.73933287e-09
6.66929466e-07
-1.48611132e-09
6.66976485e-07
-1.25287381e-09
6.6700451e-07
-1.03860168e-09
6.67015708e-07
-8.42260868e-10
6.67012088e-07
-6.62830512e-10
6.66995628e-07
-4.99338567e-10
6.66968303e-07
-3.50902937e-10
6.66931948e-07
-2.1662893e-10
6.6688809e-07
-9.55423109e-11
6.66837847e-07
1.36248699e-11
6.66781063e-07
1.11603484e-10
6.66718926e-07
1.99157139e-10
6.66652275e-07
2.7707296e-10
6.66581906e-07
3.46102341e-10
6.66508456e-07
4.06972464e-10
6.66432472e-07
4.60352304e-10
6.66354455e-07
5.06881308e-10
6.66274852e-07
5.47162725e-10
6.66194068e-07
5.81758349e-10
6.6611247e-07
6.11190743e-10
6.66030389e-07
6.35944509e-10
6.65948121e-07
6.56466066e-10
6.65865931e-07
6.73165626e-10
6.65784051e-07
6.86418768e-10
6.65702681e-07
6.96567224e-10
6.65621995e-07
7.039221e-10
6.65542138e-07
7.08765446e-10
6.65463236e-07
7.11353377e-10
6.65385393e-07
7.11917138e-10
6.65308701e-07
7.1066727e-10
6.65233232e-07
7.07793898e-10
6.65159052e-07
7.0346999e-10
6.65086214e-07
6.97852263e-10
6.65014762e-07
6.91083326e-10
6.64944735e-07
6.83291694e-10
6.64876162e-07
6.74593954e-10
6.64809069e-07
6.65095685e-10
6.64743475e-07
6.54891278e-10
6.64679392e-07
6.44065776e-10
6.64616831e-07
6.32695568e-10
6.64555796e-07
6.20848068e-10
6.64496286e-07
6.08583349e-10
6.64438299e-07
5.95954671e-10
6.64381827e-07
5.83008062e-10
6.64326862e-07
5.69783833e-10
6.64273392e-07
5.56316351e-10
6.64221404e-07
5.42634993e-10
6.64170884e-07
5.28763272e-10
6.64121815e-07
5.14720772e-10
6.6407418e-07
5.00519347e-10
6.64027959e-07
4.86180036e-10
6.63983133e-07
4.71656601e-10
6.63939665e-07
4.57167576e-10
6.63897614e-07
4.41778225e-10
6.63856835e-07
4.29243144e-10
4.03899978e-10
6.6671335e-07
-3.38397595e-10
6.66860615e-07
-1.05763679e-09
6.67110414e-07
-1.76756089e-09
6.67445611e-07
-2.32697851e-09
6.67831177e-07
-2.6101559e-09
6.68222815e-07
-2.55786962e-09
6.68575626e-07
-2.17779788e-09
6.6885119e-07
-1.52812848e-09
6.69021236e-07
-7.0134043e-10
6.69080191e-07
1.88405303e-10
6.69029401e-07
1.03803824e-09
6.68882388e-07
1.762191e-09
6.68661318e-07
2.30405372e-09
6.68393154e-07
2.6344841e-09
6.68106262e-07
2.74815999e-09
6.67828028e-07
2.65752919e-09
6.67583345e-07
2.38642185e-09