/*--------------------------------*- C++ -*----------------------------------*\
| =========                 |                                                 |
| \\      /  F ield         | OpenFOAM: The Open Source CFD Toolbox           |
|  \\    /   O peration     | Version:  v2012                                 |
|   \\  /    A nd           | Website:  www.openfoam.com                      |
|    \\/     M anipulation  |                                                 |
\*---------------------------------------------------------------------------*/
FoamFile
{
    version     2.0;
    format      ascii;
    class       volVectorField;
    location    "2.79";
    object      U;
}
// * * * * * * * * * * * * * * * * * * * * * * * * * * * * * * * * * * * * * //

dimensions      [0 1 -1 0 0 0 0];


internalField   nonuniform List<vector> 
28416
(
(0.100001804 -1.20347771e-05 0)
(0.100016026 -3.77239061e-05 0)
(0.10004441 -6.23764817e-05 0)
(0.100085002 -7.9768845e-05 0)
(0.100132568 -8.43945375e-05 0)
(0.100181136 -7.40341545e-05 0)
(0.100225034 -4.97530412e-05 0)
(0.100258657 -1.45304677e-05 0)
(0.100279698 2.86071699e-05 0)
(0.100289827 7.5113309e-05 0)
(0.10028912 0.000118155606 0)
(0.100277112 0.00015374203 0)
(0.100255693 0.000179285099 0)
(0.100227606 0.000193308251 0)
(0.100195774 0.000195657117 0)
(0.100163093 0.000187248605 0)
(0.10013219 0.000169683719 0)
(0.100105293 0.000145021257 0)
(0.100084131 0.000115855518 0)
(0.100069746 8.55754596e-05 0)
(0.100062222 5.84361083e-05 0)
(0.100060432 3.91096133e-05 0)
(0.100061823 3.1699934e-05 0)
(0.100062606 3.87986007e-05 0)
(0.100058407 6.07540848e-05 0)
(0.100044929 9.55241515e-05 0)
(0.100018789 0.000139182025 0)
(0.0999781142 0.000186702267 0)
(0.0999225623 0.000232922379 0)
(0.0998531708 0.000273344226 0)
(0.0997720389 0.0003046057 0)
(0.0996818856 0.000324670235 0)
(0.0995856478 0.000332827601 0)
(0.0994862013 0.000329588647 0)
(0.0993861876 0.000316539753 0)
(0.0992878941 0.000296193672 0)
(0.09919312 0.000271838728 0)
(0.0991029893 0.000247347774 0)
(0.099017711 0.0002268866 0)
(0.0989363488 0.000214485958 0)
(0.098856729 0.000213497907 0)
(0.098775639 0.000226014037 0)
(0.0986893651 0.000252365174 0)
(0.0985944355 0.000290857357 0)
(0.0984883256 0.000337908395 0)
(0.0983699206 0.000388665083 0)
(0.0982396412 0.000437998002 0)
(0.098099231 0.000481594627 0)
(0.0979512841 0.00051680839 0)
(0.0977986516 0.000543001328 0)
(0.0976438937 0.000561304355 0)
(0.0974889113 0.000573931632 0)
(0.0973348282 0.00058333155 0)
(0.0971821031 0.000591476719 0)
(0.0970307841 0.000599492519 0)
(0.0968807885 0.000607659014 0)
(0.096732112 0.000615675815 0)
(0.0965849201 0.000623012414 0)
(0.0964395367 0.000629188817 0)
(0.0962963735 0.00063391034 0)
(0.0961558516 0.000637065641 0)
(0.0960183497 0.000638648781 0)
(0.0958841857 0.000638672433 0)
(0.095753625 0.000637113841 0)
(0.0956268972 0.000633901958 0)
(0.0955042129 0.000628931663 0)
(0.0953857728 0.000622085342 0)
(0.0952717718 0.000613248708 0)
(0.0951623996 0.000602317573 0)
(0.0950578422 0.000589198443 0)
(0.0949582837 0.00057380724 0)
(0.094863911 0.000556068953 0)
(0.0947749178 0.000535919067 0)
(0.0946915087 0.000513306336 0)
(0.0946139041 0.000488196092 0)
(0.0945423443 0.000460573471 0)
(0.0944770967 0.000430446018 0)
(0.0944184686 0.000397844999 0)
(0.0943668254 0.000362820984 0)
(0.0943226757 0.000325431087 0)
(0.09428657 0.000285656861 0)
(0.094258901 0.000243424214 0)
(0.0942398896 0.000198613351 0)
(0.0942295828 0.000151137342 0)
(0.0942279591 0.000101080129 0)
(0.094234542 4.8714532e-05 0)
(0.0942481624 -4.6465857e-06 0)
(0.0942714421 -5.70707894e-05 0)
(0.0943077615 -0.000109854994 0)
(0.0943564971 -0.000163718738 0)
(0.0944169327 -0.000218451737 0)
(0.0944891813 -0.000273746875 0)
(0.0945733368 -0.00032930331 0)
(0.0946692704 -0.000384729357 0)
(0.0947767858 -0.000439569795 0)
(0.0948956211 -0.000493341735 0)
(0.0950253967 -0.000545538653 0)
(0.0951656062 -0.000595632845 0)
(0.0953156213 -0.000643085382 0)
(0.0954746941 -0.000687360238 0)
(0.0956419633 -0.000727941386 0)
(0.0958164639 -0.000764351606 0)
(0.0959971392 -0.000796170669 0)
(0.0961828553 -0.000823050743 0)
(0.0963724176 -0.000844727808 0)
(0.0965645906 -0.000861028739 0)
(0.096758119 -0.000871874358 0)
(0.0969517515 -0.000877279039 0)
(0.0971442639 -0.000877347425 0)
(0.0973344819 -0.000872268666 0)
(0.0975213016 -0.000862308461 0)
(0.0977037069 -0.000847799171 0)
(0.0978807834 -0.000829128384 0)
(0.0980517286 -0.00080672639 0)
(0.0982158579 -0.000781053185 0)
(0.0983726074 -0.000752585586 0)
(0.0985215329 -0.000721804978 0)
(0.0986623068 -0.000689186191 0)
(0.0987947115 -0.000655187808 0)
(0.098918632 -0.00062024403 0)
(0.0990340462 -0.000584758175 0)
(0.0991410149 -0.000549097734 0)
(0.0992396717 -0.000513591035 0)
(0.0993302128 -0.000478525469 0)
(0.0994128864 -0.00044414721 0)
(0.0994879829 -0.000410662238 0)
(0.0995558249 -0.000378237585 0)
(0.0996167579 -0.000347002031 0)
(0.0996711456 -0.000317047446 0)
(0.0997193676 -0.000288432685 0)
(0.0997618142 -0.000261189952 0)
(0.0997988787 -0.000235329755 0)
(0.0998309507 -0.000210841907 0)
(0.0998584151 -0.000187696674 0)
(0.0998816561 -0.000165851007 0)
(0.0999010546 -0.000145257268 0)
(0.0999169808 -0.00012586801 0)
(0.0999297902 -0.000107636918 0)
(0.0999398264 -9.05224148e-05 0)
(0.0999474212 -7.44956342e-05 0)
(0.0999528868 -5.95490472e-05 0)
(0.0999565006 -4.57031792e-05 0)
(0.0999584853 -3.30044661e-05 0)
(0.0999589848 -2.15050194e-05 0)
(0.0999579942 -1.12160336e-05 0)
(0.0999554232 -1.99318385e-06 0)
(0.0999516398 6.41236092e-06 0)
(0.0999470404 1.39181262e-05 0)
(0.0999415554 2.05460585e-05 0)
(0.0999351807 2.64017001e-05 0)
(0.0999280337 3.15696659e-05 0)
(0.0999202205 3.61174882e-05 0)
(0.099911829 4.01077162e-05 0)
(0.0999029438 4.35974544e-05 0)
(0.0998936465 4.66373951e-05 0)
(0.0998840126 4.92721074e-05 0)
(0.0998741114 5.15404491e-05 0)
(0.0998640054 5.34759793e-05 0)
(0.0998537502 5.51075718e-05 0)
(0.099843395 5.64602601e-05 0)
(0.0998329823 5.75561861e-05 0)
(0.0998225487 5.84154761e-05 0)
(0.0998121255 5.90569043e-05 0)
(0.0998017396 5.94982914e-05 0)
(0.0997914142 5.97566763e-05 0)
(0.0997811696 5.98483429e-05 0)
(0.0997710233 5.97887746e-05 0)
(0.099760991 5.9592578e-05 0)
(0.0997510867 5.9273399e-05 0)
(0.0997413227 5.88438403e-05 0)
(0.0997317102 5.83153918e-05 0)
(0.099722259 5.76983833e-05 0)
(0.0997129778 5.70019728e-05 0)
(0.0997038743 5.6234179e-05 0)
(0.0996949548 5.54019628e-05 0)
(0.0996862249 5.4511344e-05 0)
(0.0996776891 5.3567534e-05 0)
(0.0996693509 5.25751006e-05 0)
(0.0996612132 5.15381242e-05 0)
(0.0996532781 5.04603167e-05 0)
(0.0996455477 4.93450956e-05 0)
(0.0996380232 4.81955915e-05 0)
(0.0996307074 4.70146506e-05 0)
(0.0996235995 4.58044679e-05 0)
(0.0996167132 4.45675164e-05 0)
(0.099610016 4.33006376e-05 0)
(0.0996036458 4.20191898e-05 0)
(0.0995971721 4.06420698e-05 0)
(0.0995922304 3.9485229e-05 0)
(0.0995837234 3.70832899e-05 0)
(0.100001229 -2.49157377e-05 0)
(0.100012891 -7.72136444e-05 0)
(0.100039725 -0.000127083168 0)
(0.100081715 -0.00016361073 0)
(0.100133648 -0.00017738788 0)
(0.100188645 -0.000164485612 0)
(0.100240226 -0.000126429128 0)
(0.100282947 -6.83677787e-05 0)
(0.100312921 3.03556385e-06 0)
(0.100326582 7.87503981e-05 0)
(0.10032341 0.000149624944 0)
(0.1003063 0.000208866191 0)
(0.100278111 0.000251984335 0)
(0.100242191 0.000276741671 0)
(0.100202215 0.000282980649 0)
(0.100161741 0.000272117116 0)
(0.100124013 0.00024653886 0)
(0.100091859 0.000209288788 0)
(0.100067584 0.000164259502 0)
(0.100052716 0.000116684746 0)
(0.100047599 7.33300308e-05 0)
(0.100050936 4.1856791e-05 0)
(0.100059682 2.93548264e-05 0)
(0.100069347 4.05502807e-05 0)
(0.100074589 7.62397397e-05 0)
(0.100070015 0.000133061065 0)
(0.100051113 0.000204490085 0)
(0.100015041 0.000282241347 0)
(0.0999609449 0.000357887993 0)
(0.0998898731 0.000424237363 0)
(0.0998043744 0.000476127647 0)
(0.099707948 0.000510652945 0)
(0.0996044977 0.000526990991 0)
(0.0994979009 0.000526052047 0)
(0.0993917138 0.000510143282 0)
(0.099288968 0.000482756258 0)
(0.0991919848 0.000448470505 0)
(0.0991021526 0.000412856827 0)
(0.0990196824 0.000382202594 0)
(0.0989434114 0.000362910679 0)
(0.0988707622 0.000360551155 0)
(0.0987979456 0.000378731644 0)
(0.0987204483 0.000418110124 0)
(0.0986337655 0.000475920783 0)
(0.0985342474 0.000546285113 0)
(0.0984198417 0.000621345469 0)
(0.098290497 0.000692959873 0)
(0.0981480879 0.000754468408 0)
(0.0979958824 0.000801994045 0)
(0.0978377234 0.000834898203 0)
(0.0976771843 0.000855312002 0)
(0.0975169434 0.000866987482 0)
(0.0973585264 0.000873926359 0)
(0.0972024222 0.000879262679 0)
(0.0970484483 0.000884706938 0)
(0.0968961872 0.000890595189 0)
(0.0967453298 0.00089635454 0)
(0.096595843 0.00090109122 0)
(0.0964479677 0.000904048222 0)
(0.0963021134 0.000904813034 0)
(0.0961587323 0.00090329734 0)
(0.0960182303 0.000899594289 0)
(0.0958809325 0.000893826443 0)
(0.095747093 0.000886052622 0)
(0.095616922 0.000876245506 0)
(0.0954906122 0.00086431492 0)
(0.0953683528 0.00085014344 0)
(0.0952503343 0.000833612026 0)
(0.0951367489 0.000814609827 0)
(0.0950277896 0.000793033385 0)
(0.094923653 0.000768783017 0)
(0.0948245423 0.00074176122 0)
(0.0947306724 0.000711874209 0)
(0.0946422746 0.000679035469 0)
(0.0945596006 0.000643169633 0)
(0.0944829271 0.000604215508 0)
(0.0944125605 0.000562127547 0)
(0.0943488423 0.000516875001 0)
(0.0942921524 0.00046843367 0)
(0.094242906 0.000416769314 0)
(0.0942014924 0.000361752929 0)
(0.0941681823 0.000303220949 0)
(0.0941431794 0.000241052891 0)
(0.0941267625 0.000175283564 0)
(0.0941193248 0.000106176432 0)
(0.0941218512 3.4172379e-05 0)
(0.0941352436 -4.01922801e-05 0)
(0.0941592476 -0.000115262379 0)
(0.0941942083 -0.000191456816 0)
(0.0942411693 -0.000269097464 0)
(0.094300491 -0.00034784001 0)
(0.0943723013 -0.000427223922 0)
(0.0944567391 -0.000506794817 0)
(0.0945538302 -0.000585997607 0)
(0.0946634737 -0.000664181768 0)
(0.0947854566 -0.000740639646 0)
(0.0949194341 -0.000814621114 0)
(0.0950649163 -0.000885347823 0)
(0.0952212653 -0.000952034451 0)
(0.0953876965 -0.00101391136 0)
(0.095563282 -0.00107024734 0)
(0.0957469609 -0.00112037253 0)
(0.095937552 -0.00116370027 0)
(0.0961337724 -0.0011997468 0)
(0.0963342596 -0.00122814749 0)
(0.0965375973 -0.00124866885 0)
(0.0967423442 -0.00126121553 0)
(0.0969470641 -0.00126583198 0)
(0.0971503558 -0.00126269872 0)
(0.0973508816 -0.00125212368 0)
(0.0975473928 -0.00123452912 0)
(0.0977387503 -0.00121043522 0)
(0.0979239416 -0.00118044131 0)
(0.0981020918 -0.00114520573 0)
(0.09827247 -0.00110542553 0)
(0.098434491 -0.00106181672 0)
(0.0985877128 -0.00101509599 0)
(0.0987318302 -0.000965964399 0)
(0.0988666661 -0.000915093431 0)
(0.0989921604 -0.000863113642 0)
(0.0991083576 -0.000810605918 0)
(0.0992153935 -0.000758095321 0)
(0.0993134816 -0.000706047343 0)
(0.0994029004 -0.000654866243 0)
(0.0994839798 -0.000604895161 0)
(0.0995570906 -0.000556417773 0)
(0.0996226341 -0.000509660875 0)
(0.0996810333 -0.000464797548 0)
(0.0997327244 -0.000421951269 0)
(0.099778149 -0.000381201344 0)
(0.099817748 -0.000342588834 0)
(0.0998519602 -0.000306122756 0)
(0.0998812184 -0.000271786143 0)
(0.0999059434 -0.000239541042 0)
(0.099926538 -0.000209333038 0)
(0.0999433871 -0.000181097527 0)
(0.0999568591 -0.000154768521 0)
(0.0999673025 -0.000130283364 0)
(0.0999750414 -0.00010758096 0)
(0.0999803693 -8.66034535e-05 0)
(0.099983543 -6.73012134e-05 0)
(0.0999847792 -4.96264298e-05 0)
(0.0999842652 -3.3521693e-05 0)
(0.099982184 -1.89194319e-05 0)
(0.0999787521 -5.72693201e-06 0)
(0.0999741744 6.21499524e-06 0)
(0.0999685596 1.70804124e-05 0)
(0.0999620462 2.68033933e-05 0)
(0.099954783 3.54055444e-05 0)
(0.0999468387 4.29945112e-05 0)
(0.0999382877 4.96656064e-05 0)
(0.0999292115 5.55005462e-05 0)
(0.0999196864 6.05773741e-05 0)
(0.099909784 6.49691933e-05 0)
(0.099899572 6.87425633e-05 0)
(0.0998891133 7.19575639e-05 0)
(0.0998784654 7.46682449e-05 0)
(0.0998676806 7.69230407e-05 0)
(0.0998568062 7.87652331e-05 0)
(0.0998458839 8.02335193e-05 0)
(0.0998349509 8.13626273e-05 0)
(0.0998240395 8.21839026e-05 0)
(0.0998131779 8.27258178e-05 0)
(0.0998023906 8.30143827e-05 0)
(0.0997916988 8.30734611e-05 0)
(0.0997811208 8.29250136e-05 0)
(0.0997706724 8.25892773e-05 0)
(0.0997603673 8.20848958e-05 0)
(0.0997502173 8.14290102e-05 0)
(0.0997402326 8.06373258e-05 0)
(0.099730422 7.97241645e-05 0)
(0.099720793 7.87025139e-05 0)
(0.0997113523 7.75840804e-05 0)
(0.0997021052 7.63793534e-05 0)
(0.0996930564 7.50976805e-05 0)
(0.0996842097 7.3747347e-05 0)
(0.099675568 7.23356457e-05 0)
(0.0996671337 7.08689746e-05 0)
(0.0996589087 6.93529309e-05 0)
(0.0996508941 6.77923767e-05 0)
(0.0996430911 6.61914768e-05 0)
(0.0996355001 6.45536715e-05 0)
(0.099628123 6.28816924e-05 0)
(0.0996209572 6.11770133e-05 0)
(0.0996140152 5.94414214e-05 0)
(0.0996072582 5.76681497e-05 0)
(0.0996008258 5.58786701e-05 0)
(0.0995942419 5.39572691e-05 0)
(0.0995892161 5.23576799e-05 0)
(0.0995802258 4.91051382e-05 0)
(0.100001562 -3.03306605e-05 0)
(0.100014521 -9.39322322e-05 0)
(0.10004209 -0.000155097131 0)
(0.100083748 -0.000201164797 0)
(0.100134597 -0.000221190656 0)
(0.100188237 -0.000210378176 0)
(0.100238601 -0.000170092697 0)
(0.100280334 -0.000106168517 0)
(0.100309153 -2.75667377e-05 0)
(0.100323253 5.508056e-05 0)
(0.100322459 0.000133432331 0)
(0.100307664 0.000199849163 0)
(0.100281563 0.000248910703 0)
(0.100247587 0.000277932354 0)
(0.100209317 0.00028656378 0)
(0.100170256 0.000276214367 0)
(0.100133613 0.000249397966 0)
(0.100102179 0.000209373789 0)
(0.100078203 0.000160373784 0)
(0.100063176 0.000108175834 0)
(0.100057489 6.03364964e-05 0)
(0.100060104 2.54835023e-05 0)
(0.100068275 1.15887104e-05 0)
(0.100077448 2.39815087e-05 0)
(0.100082084 6.41234587e-05 0)
(0.100076983 0.000128948675 0)
(0.100058045 0.000211357357 0)
(0.100022668 0.000301944549 0)
(0.09997 0.000390959435 0)
(0.0999009079 0.000469917259 0)
(0.0998176668 0.000532592904 0)
(0.099723485 0.000575366622 0)
(0.099622021 0.000597075271 0)
(0.0995169775 0.000598611396 0)
(0.0994118025 0.000582509861 0)
(0.0993094717 0.000552676439 0)
(0.0992123006 0.000514274141 0)
(0.0991217354 0.000473638759 0)
(0.0990381126 0.000438003014 0)
(0.0989604317 0.000414840176 0)
(0.0988862622 0.000410790899 0)
(0.0988119292 0.000430339596 0)
(0.0987330341 0.000474598633 0)
(0.0986452154 0.000540651405 0)
(0.0985449597 0.000621807401 0)
(0.0984302617 0.000708849207 0)
(0.0983009731 0.000792007201 0)
(0.0981587447 0.000863110877 0)
(0.0980065717 0.000917260008 0)
(0.0978480699 0.000953502703 0)
(0.0976866948 0.000974360286 0)
(0.0975251327 0.000984456099 0)
(0.097365016 0.000988805469 0)
(0.0972069863 0.000991380157 0)
(0.0970510088 0.000994365037 0)
(0.0968967724 0.000998189505 0)
(0.0967440209 0.00100210841 0)
(0.0965927293 0.00100495807 0)
(0.0964431194 0.00100575495 0)
(0.0962955743 0.00100397342 0)
(0.096150524 0.000999523853 0)
(0.0960083601 0.000992566091 0)
(0.0958694003 0.000983306987 0)
(0.0957338929 0.000971874048 0)
(0.0956020414 0.000958282877 0)
(0.0954740299 0.000942466258 0)
(0.0953500386 0.000924320492 0)
(0.0952302495 0.000903738854 0)
(0.0951148472 0.000880623906 0)
(0.0950040192 0.000854885335 0)
(0.0948979579 0.000826433693 0)
(0.0947968646 0.000795176733 0)
(0.0947009541 0.000761020006 0)
(0.094610459 0.000723870316 0)
(0.0945256336 0.00068363984 0)
(0.0944467573 0.000640249388 0)
(0.0943741377 0.000593630083 0)
(0.0943081125 0.000543723019 0)
(0.0942490494 0.000490475935 0)
(0.0941973416 0.000433839181 0)
(0.0941533954 0.000373761578 0)
(0.094117617 0.000310233647 0)
(0.0940904601 0.000243355401 0)
(0.0940724184 0.000173333633 0)
(0.094063934 0.000100404993 0)
(0.0940647891 2.47813329e-05 0)
(0.0940750929 -5.34357493e-05 0)
(0.0940963005 -0.000134170689 0)
(0.0941295229 -0.000216860365 0)
(0.0941750604 -0.000301224341 0)
(0.0942331597 -0.000386985941 0)
(0.0943041149 -0.000473691989 0)
(0.0943881615 -0.000560792963 0)
(0.0944854099 -0.000647655664 0)
(0.0945958423 -0.000733555923 0)
(0.094719313 -0.00081769617 0)
(0.0948555283 -0.000899223099 0)
(0.0950040317 -0.000977243966 0)
(0.095164197 -0.00105084824 0)
(0.0953352252 -0.00111913385 0)
(0.0955161474 -0.00118123621 0)
(0.095705833 -0.00123635832 0)
(0.0959030058 -0.00128380015 0)
(0.096106265 -0.00132298494 0)
(0.0963141134 -0.00135348049 0)
(0.0965249891 -0.00137501432 0)
(0.0967373008 -0.00138748188 0)
(0.0969494646 -0.00139094773 0)
(0.0971599391 -0.00138563994 0)
(0.0973672596 -0.00137193835 0)
(0.0975700674 -0.00135035767 0)
(0.0977671334 -0.00132152647 0)
(0.0979573772 -0.00128616347 0)
(0.0981398785 -0.0012450524 0)
(0.0983138834 -0.00119901678 0)
(0.0984788043 -0.0011488959 0)
(0.0986342154 -0.00109552277 0)
(0.0987798435 -0.00103970498 0)
(0.0989155563 -0.000982208695 0)
(0.099041348 -0.000923746072 0)
(0.0991573236 -0.000864966064 0)
(0.0992636828 -0.000806448397 0)
(0.0993607046 -0.000748700422 0)
(0.0994487317 -0.000692156462 0)
(0.0995281569 -0.000637179264 0)
(0.0995994095 -0.000584063111 0)
(0.0996629434 -0.000533038297 0)
(0.0997192269 -0.000484276686 0)
(0.0997687347 -0.000437897705 0)
(0.0998119431 -0.000393974415 0)
(0.0998493248 -0.00035253949 0)
(0.0998813409 -0.000313591844 0)
(0.0999084355 -0.000277103882 0)
(0.0999310373 -0.000243027049 0)
(0.0999495611 -0.000211295793 0)
(0.0999644012 -0.000181831222 0)
(0.0999759256 -0.00015454194 0)
(0.0999844839 -0.000129326769 0)
(0.0999904137 -0.000106079754 0)
(0.0999940334 -8.46907235e-05 0)
(0.0999956432 -6.50549884e-05 0)
(0.0999955293 -4.70867539e-05 0)
(0.0999939386 -3.07113436e-05 0)
(0.0999910574 -1.58527291e-05 0)
(0.099986987 -2.45865321e-06 0)
(0.0999817269 9.57514261e-06 0)
(0.0999753811 2.03720263e-05 0)
(0.0999681688 3.00402224e-05 0)
(0.0999602204 3.8640546e-05 0)
(0.0999516166 4.62470009e-05 0)
(0.099942445 5.29401699e-05 0)
(0.0999327917 5.87977053e-05 0)
(0.0999227345 6.38937926e-05 0)
(0.0999123449 6.82985191e-05 0)
(0.0999016894 7.2076809e-05 0)
(0.0998908292 7.52879612e-05 0)
(0.0998798202 7.79857296e-05 0)
(0.0998687124 8.02186357e-05 0)
(0.0998575503 8.20303785e-05 0)
(0.0998463729 8.3460339e-05 0)
(0.0998352143 8.45441353e-05 0)
(0.0998241037 8.53141568e-05 0)
(0.0998130662 8.58000242e-05 0)
(0.0998021235 8.60289483e-05 0)
(0.0997912941 8.60259908e-05 0)
(0.0997805941 8.58142456e-05 0)
(0.0997700374 8.5414965e-05 0)
(0.099759636 8.4847649e-05 0)
(0.0997494005 8.41301152e-05 0)
(0.09973934 8.32785599e-05 0)
(0.0997294625 8.23076196e-05 0)
(0.0997197748 8.12304381e-05 0)
(0.0997102827 8.00587447e-05 0)
(0.0997009912 7.88029454e-05 0)
(0.0996919041 7.74722263e-05 0)
(0.0996830246 7.60746648e-05 0)
(0.099674355 7.46173412e-05 0)
(0.0996658969 7.31064509e-05 0)
(0.0996576514 7.15474045e-05 0)
(0.099649619 6.99448987e-05 0)
(0.0996418 6.8302957e-05 0)
(0.0996341941 6.66249027e-05 0)
(0.099626802 6.49134032e-05 0)
(0.0996196204 6.31699023e-05 0)
(0.09961266 6.1396533e-05 0)
(0.099605882 5.95866629e-05 0)
(0.0995994232 5.77650801e-05 0)
(0.0995928258 5.58144795e-05 0)
(0.0995877787 5.42087475e-05 0)
(0.0995789885 5.09595679e-05 0)
(0.100001411 -3.87305487e-05 0)
(0.10001392 -0.000120525662 0)
(0.100041709 -0.00020012 0)
(0.100084904 -0.000260911527 0)
(0.100138719 -0.000288386189 0)
(0.100196339 -0.000276084162 0)
(0.100250968 -0.000225624014 0)
(0.100296477 -0.000144448398 0)
(0.10032787 -4.37134154e-05 0)
(0.100342887 6.40557751e-05 0)
(0.100341568 0.000165925965 0)
(0.100325112 0.000251873441 0)
(0.100296314 0.000315404681 0)
(0.100258921 0.000353214256 0)
(0.100216942 0.0003648726 0)
(0.100174332 0.000352142315 0)
(0.100134755 0.000318148454 0)
(0.100101417 0.000266948775 0)
(0.100076904 0.000203840802 0)
(0.100062893 0.000136121759 0)
(0.100059713 7.34397548e-05 0)
(0.100065853 2.69654539e-05 0)
(0.100077952 7.46109592e-06 0)
(0.100091583 2.20129989e-05 0)
(0.100101549 7.25699733e-05 0)
(0.100101993 0.000154777482 0)
(0.100087723 0.000259426532 0)
(0.100055453 0.000374535372 0)
(0.100004079 0.00048768187 0)
(0.099934524 0.000588079773 0)
(0.099849342 0.000667868308 0)
(0.0997521696 0.00072252534 0)
(0.0996471703 0.00075062746 0)
(0.0995385724 0.000753296334 0)
(0.0994303271 0.000733655034 0)
(0.0993258509 0.000696497357 0)
(0.0992277872 0.000648183206 0)
(0.0991377407 0.000596585481 0)
(0.0990560032 0.000550796307 0)
(0.0989813613 0.000520319945 0)
(0.0989110741 0.00051367996 0)
(0.0988410875 0.000536680416 0)
(0.0987665346 0.000590820792 0)
(0.0986825087 0.000672448046 0)
(0.0985849628 0.000773091935 0)
(0.0984715045 0.0008810769 0)
(0.098341846 0.000984049094 0)
(0.0981977641 0.0010716999 0)
(0.0980425821 0.00113786196 0)
(0.0978803376 0.00118134965 0)
(0.0977148951 0.00120535507 0)
(0.0975492597 0.0012157244 0)
(0.0973852566 0.00121880973 0)
(0.097223598 0.00121966116 0)
(0.0970642288 0.0012210832 0)
(0.0969067698 0.00122366332 0)
(0.0967508877 0.00122649518 0)
(0.0965964951 0.00122812901 0)
(0.0964437745 0.00122733052 0)
(0.0962930888 0.00122343881 0)
(0.0961448583 0.00121634598 0)
(0.0959994666 0.00120626571 0)
(0.0958572202 0.00119347771 0)
(0.095718353 0.00117816555 0)
(0.0955830517 0.00116037199 0)
(0.0954514832 0.00114003294 0)
(0.0953238108 0.00111703408 0)
(0.0952002015 0.00109125256 0)
(0.0950808273 0.00106257285 0)
(0.0949658663 0.00103088457 0)
(0.0948555055 0.000996074886 0)
(0.0947499448 0.000958023983 0)
(0.0946494018 0.000916605779 0)
(0.0945541168 0.000871692053 0)
(0.0944643562 0.00082315724 0)
(0.0943804153 0.000770882087 0)
(0.0943026205 0.000714755793 0)
(0.0942313289 0.000654676934 0)
(0.0941669277 0.000590553785 0)
(0.0941098304 0.000522305753 0)
(0.0940604698 0.000449866672 0)
(0.0940192872 0.000373196253 0)
(0.0939867307 0.000292292321 0)
(0.0939632314 0.000207161991 0)
(0.0939491898 0.000117847946 0)
(0.0939454699 2.44902645e-05 0)
(0.0939528683 -7.22222471e-05 0)
(0.0939716877 -0.000171722503 0)
(0.0940025108 -0.000273858919 0)
(0.0940460321 -0.000378328477 0)
(0.0941027821 -0.000484640091 0)
(0.0941731781 -0.00059218737 0)
(0.0942575516 -0.000700269028 0)
(0.0943561249 -0.000808077138 0)
(0.0944689864 -0.000914693463 0)
(0.0945960723 -0.00101910503 0)
(0.094737146 -0.00112022531 0)
(0.0948917797 -0.00121691824 0)
(0.0950593408 -0.00130802783 0)
(0.0952389869 -0.00139241207 0)
(0.0954296662 -0.00146897917 0)
(0.0956301277 -0.00153672467 0)
(0.0958389395 -0.00159476756 0)
(0.0960545155 -0.00164238341 0)
(0.0962751492 -0.00167903213 0)
(0.0964990538 -0.00170437854 0)
(0.0967244067 -0.00171830424 0)
(0.0969493945 -0.00172090996 0)
(0.0971722581 -0.00171250838 0)
(0.0973913345 -0.00169360828 0)
(0.0976050922 -0.0016648912 0)
(0.0978121607 -0.00162718271 0)
(0.0980113513 -0.0015814201 0)
(0.0982016705 -0.00152861866 0)
(0.0983823246 -0.00146983832 0)
(0.0985527179 -0.0014061523 0)
(0.0987124444 -0.00133861892 0)
(0.0988612752 -0.00126825745 0)
(0.0989991416 -0.0011960284 0)
(0.0991261166 -0.00112281849 0)
(0.099242395 -0.00104942997 0)
(0.0993482734 -0.000976574162 0)
(0.0994441303 -0.000904868639 0)
(0.0995304083 -0.000834837502 0)
(0.0996075964 -0.000766914266 0)
(0.0996762157 -0.000701446646 0)
(0.0997368066 -0.000638702588 0)
(0.0997899184 -0.000578877025 0)
(0.0998360997 -0.000522099169 0)
(0.0998758909 -0.000468440621 0)
(0.0999098178 -0.000417924399 0)
(0.0999383879 -0.0003705328 0)
(0.0999620885 -0.000326213173 0)
(0.0999813837 -0.000284884005 0)
(0.0999967113 -0.000246443099 0)
(0.100008486 -0.000210775188 0)
(0.100017102 -0.000177755821 0)
(0.100022925 -0.000147255655 0)
(0.100026288 -0.000119153508 0)
(0.100027485 -9.33482189e-05 0)
(0.100026745 -6.97450339e-05 0)
(0.100024248 -4.82410832e-05 0)
(0.10002017 -2.87280561e-05 0)
(0.100014666 -1.1089672e-05 0)
(0.100007986 4.7899565e-06 0)
(0.100000421 1.89820346e-05 0)
(0.0999920854 3.16571346e-05 0)
(0.0999830462 4.29441974e-05 0)
(0.0999734124 5.29386197e-05 0)
(0.0999632753 6.17434068e-05 0)
(0.0999527136 6.94608835e-05 0)
(0.0999418013 7.61860516e-05 0)
(0.0999306061 8.20076775e-05 0)
(0.099919189 8.70087033e-05 0)
(0.099907605 9.12659669e-05 0)
(0.0998959043 9.48500947e-05 0)
(0.0998841321 9.78256416e-05 0)
(0.099872329 0.000100251377 0)
(0.0998605317 0.00010218062 0)
(0.0998487727 0.000103661632 0)
(0.0998370812 0.000104738058 0)
(0.0998254826 0.000105449387 0)
(0.0998139993 0.000105831409 0)
(0.0998026503 0.000105916626 0)
(0.0997914522 0.000105734619 0)
(0.0997804189 0.000105312359 0)
(0.099769562 0.000104674467 0)
(0.0997588913 0.000103843421 0)
(0.0997484147 0.000102839725 0)
(0.0997381388 0.000101682058 0)
(0.0997280689 0.000100387387 0)
(0.0997182092 9.89710746e-05 0)
(0.0997085632 9.74469806e-05 0)
(0.0996991333 9.58275515e-05 0)
(0.0996899216 9.41239118e-05 0)
(0.0996809293 9.23459499e-05 0)
(0.0996721573 9.0502399e-05 0)
(0.099663606 8.86009133e-05 0)
(0.0996552755 8.66481374e-05 0)
(0.0996471655 8.46497613e-05 0)
(0.0996392755 8.26105661e-05 0)
(0.0996316044 8.05344165e-05 0)
(0.0996241521 7.84243774e-05 0)
(0.099616914 7.62821068e-05 0)
(0.0996099001 7.41103396e-05 0)
(0.0996030679 7.19014276e-05 0)
(0.099596556 6.96866256e-05 0)
(0.099589877 6.73240918e-05 0)
(0.0995847695 6.53905176e-05 0)
(0.0995756151 6.14761218e-05 0)
(0.100001466 -4.65057845e-05 0)
(0.100014288 -0.00014479237 0)
(0.100042522 -0.000241006561 0)
(0.100086129 -0.000315796329 0)
(0.100140231 -0.000352147841 0)
(0.100198113 -0.000342225998 0)
(0.100253227 -0.0002874078 0)
(0.100299716 -0.000195953044 0)
(0.100333103 -8.08544221e-05 0)
(0.100350197 4.2665082e-05 0)
(0.100349914 0.000159955595 0)
(0.100334103 0.000259508567 0)
(0.100305932 0.000333613862 0)
(0.100269026 0.000378366348 0)
(0.100227358 0.000393172935 0)
(0.100184894 0.000379903876 0)
(0.100145311 0.00034198627 0)
(0.100111839 0.00028395046 0)
(0.100087106 0.000211807314 0)
(0.100072881 0.000133920942 0)
(0.100069719 6.14448229e-05 0)
(0.100076827 7.28289337e-06 0)
(0.100091028 -1.64805959e-05 0)
(0.100107148 -8.31137454e-07 0)
(0.100118972 5.63941693e-05 0)
(0.100120482 0.000150695719 0)
(0.100107285 0.000271825716 0)
(0.100076413 0.000405913569 0)
(0.100026668 0.000538447554 0)
(0.0999588001 0.000656751921 0)
(0.0998751889 0.000751501256 0)
(0.09977933 0.000817249455 0)
(0.099675299 0.000852180425 0)
(0.0995672882 0.00085746153 0)
(0.0994592494 0.000836592616 0)
(0.0993546214 0.000795006232 0)
(0.0992560952 0.000739950893 0)
(0.099165375 0.000680447072 0)
(0.0990829085 0.000626966995 0)
(0.0990076282 0.000590535524 0)
(0.0989368473 0.000581154918 0)
(0.0988664684 0.000605792776 0)
(0.0987915453 0.000666498436 0)
(0.0987071026 0.000759332311 0)
(0.0986090396 0.000874646123 0)
(0.0984949007 0.000998869803 0)
(0.0983643075 0.00111743906 0)
(0.0982189348 0.00121804143 0)
(0.0980620342 0.00129318465 0)
(0.0978976349 0.00134129691 0)
(0.0977296598 0.00136608865 0)
(0.0975612169 0.00137453326 0)
(0.0973942459 0.00137428986 0)
(0.0972295583 0.00137149919 0)
(0.0970671683 0.00136960658 0)
(0.0969067338 0.00136936478 0)
(0.0967479352 0.00136969484 0)
(0.0965906853 0.00136884031 0)
(0.0964351628 0.00136530026 0)
(0.0962817253 0.00135827669 0)
(0.0961307873 0.00134765688 0)
(0.0959827245 0.00133373191 0)
(0.0958378313 0.00131688106 0)
(0.0956963253 0.00129736844 0)
(0.0955583735 0.00127528444 0)
(0.095424121 0.00125058519 0)
(0.0952937097 0.00122316181 0)
(0.0951672868 0.00119289212 0)
(0.0950450072 0.00115966045 0)
(0.0949270352 0.0011233546 0)
(0.0948135471 0.00108385584 0)
(0.094704736 0.00104103263 0)
(0.094600816 0.000994740931 0)
(0.0945020264 0.000944829094 0)
(0.0944086348 0.000891143844 0)
(0.094320939 0.000833535443 0)
(0.0942392684 0.000771861547 0)
(0.0941639849 0.000705990174 0)
(0.094095483 0.00063580246 0)
(0.0940341884 0.000561196156 0)
(0.0939805566 0.000482090789 0)
(0.0939350706 0.000398436417 0)
(0.0938982422 0.00031022772 0)
(0.0938706208 0.00021751643 0)
(0.0938528008 0.000120446729 0)
(0.0938452854 1.928845e-05 0)
(0.0938486358 -8.59483411e-05 0)
(0.093863653 -0.000195009414 0)
(0.0938911377 -0.000307485721 0)
(0.0939317988 -0.000422967177 0)
(0.0939862584 -0.000540947993 0)
(0.0940550746 -0.000660779146 0)
(0.0941387268 -0.000781668345 0)
(0.094237579 -0.000902684334 0)
(0.0943518493 -0.00102276131 0)
(0.0944815859 -0.00114071107 0)
(0.0946266401 -0.00125524322 0)
(0.0947866402 -0.00136499256 0)
(0.0949609721 -0.00146855443 0)
(0.0951487671 -0.00156452747 0)
(0.0953488995 -0.00165156157 0)
(0.095559995 -0.00172840807 0)
(0.0957804511 -0.00179396894 0)
(0.0960084697 -0.00184734158 0)
(0.0962421 -0.0018878559 0)
(0.0964792891 -0.00191510119 0)
(0.0967179392 -0.00192894097 0)
(0.0969559657 -0.00192951502 0)
(0.0971913542 -0.0019172287 0)
(0.0974222118 -0.00189273095 0)
(0.0976468122 -0.00185688265 0)
(0.0978636295 -0.00181071813 0)
(0.0980713624 -0.00175540248 0)
(0.0982689482 -0.00169218748 0)
(0.0984555652 -0.00162236875 0)
(0.0986306271 -0.0015472461 0)
(0.0987937705 -0.00146808867 0)
(0.0989448354 -0.00138610585 0)
(0.0990838431 -0.00130242439 0)
(0.0992109711 -0.00121807164 0)
(0.099326528 -0.00113396474 0)
(0.099430928 -0.00105090497 0)
(0.0995246672 -0.000969576631 0)
(0.0996083022 -0.000890549499 0)
(0.0996824304 -0.000814284196 0)
(0.0997476735 -0.0007411396 0)
(0.0998046629 -0.00067138173 0)
(0.0998540279 -0.000605193683 0)
(0.0998963861 -0.000542685994 0)
(0.099932337 -0.000483906729 0)
(0.0999624567 -0.000428851038 0)
(0.099987294 -0.000377470289 0)
(0.100007367 -0.000329681071 0)
(0.100023161 -0.000285373842 0)
(0.10003513 -0.000244419491 0)
(0.100043695 -0.00020667427 0)
(0.100049239 -0.000171987015 0)
(0.100052108 -0.000140203382 0)
(0.100052608 -0.000111164546 0)
(0.100051025 -8.47092949e-05 0)
(0.100047661 -6.06738749e-05 0)
(0.100042819 -3.88918682e-05 0)
(0.100036763 -1.92022907e-05 0)
(0.100029688 -1.44922058e-06 0)
(0.100021644 1.4546826e-05 0)
(0.10001269 2.89051063e-05 0)
(0.100002996 4.17072212e-05 0)
(0.0999926951 5.30729354e-05 0)
(0.0999818866 6.31138141e-05 0)
(0.0999706592 7.19344657e-05 0)
(0.0999590913 7.96369884e-05 0)
(0.0999472534 8.63182745e-05 0)
(0.0999352094 9.20691887e-05 0)
(0.0999230172 9.69746197e-05 0)
(0.099910729 0.000101113365 0)
(0.0998983919 0.000104558075 0)
(0.099886048 0.000107375402 0)