/*--------------------------------*- C++ -*----------------------------------*\
| =========                 |                                                 |
| \\      /  F ield         | OpenFOAM: The Open Source CFD Toolbox           |
|  \\    /   O peration     | Version:  v2012                                 |
|   \\  /    A nd           | Website:  www.openfoam.com                      |
|    \\/     M anipulation  |                                                 |
\*---------------------------------------------------------------------------*/
FoamFile
{
    version     2.0;
    format      ascii;
    class       volVectorField;
    location    "2.74";
    object      H;
}
// * * * * * * * * * * * * * * * * * * * * * * * * * * * * * * * * * * * * * //

dimensions      [0 1 -2 0 0 0 0];


internalField   nonuniform List<vector> 
28416
(
(151.074979 -0.0184380395 0)
(151.095198 -0.0551401699 0)
(151.138468 -0.0827948499 0)
(151.195008 -0.0922611775 0)
(151.254441 -0.0794569605 0)
(151.307055 -0.0455650399 0)
(151.344575 0.00545677977 0)
(151.367435 0.0695013035 0)
(151.37505 0.136801481 0)
(151.364041 0.19930058 0)
(151.334634 0.251519666 0)
(151.29019 0.289291029 0)
(151.235103 0.310179938 0)
(151.174154 0.313703096 0)
(151.112058 0.301021173 0)
(151.053098 0.274376946 0)
(151.000958 0.23667924 0)
(150.9586 0.191567296 0)
(150.927998 0.143841187 0)
(150.909709 0.0996950053 0)
(150.902431 0.0661835708 0)
(150.902769 0.0498165844 0)
(150.905422 0.0548693897 0)
(150.903692 0.0822236256 0)
(150.8906 0.129193815 0)
(150.860563 0.190183648 0)
(150.810384 0.257785001 0)
(150.739262 0.324186475 0)
(150.648497 0.382450503 0)
(150.541083 0.42729163 0)
(150.421068 0.455395772 0)
(150.292916 0.465448383 0)
(150.161051 0.457995967 0)
(150.02958 0.435240531 0)
(149.902105 0.400825185 0)
(149.781543 0.359616374 0)
(149.669852 0.317436859 0)
(149.56767 0.280647257 0)
(149.473938 0.2555069 0)
(149.385657 0.247352366 0)
(149.298065 0.259717515 0)
(149.205384 0.293557464 0)
(149.101974 0.346776307 0)
(148.983472 0.414312792 0)
(148.847564 0.488968914 0)
(148.694253 0.562881407 0)
(148.525632 0.629220976 0)
(148.345235 0.683577539 0)
(148.157164 0.72459871 0)
(147.96523 0.753726944 0)
(147.772329 0.77421037 0)
(147.580181 0.789804651 0)
(147.389444 0.80363844 0)
(147.200077 0.817575464 0)
(147.011773 0.832157021 0)
(146.824308 0.846975392 0)
(146.637714 0.861209334 0)
(146.452292 0.874073514 0)
(146.268511 0.885050088 0)
(146.086887 0.893904536 0)
(145.907903 0.900574436 0)
(145.731966 0.905036029 0)
(145.559419 0.907217218 0)
(145.390566 0.906974004 0)
(145.225695 0.904110827 0)
(145.065099 0.898414253 0)
(144.909075 0.889678374 0)
(144.75793 0.87771608 0)
(144.61198 0.862360573 0)
(144.471548 0.843463685 0)
(144.336973 0.820895256 0)
(144.208613 0.794544879 0)
(144.086847 0.764325522 0)
(143.97208 0.730177941 0)
(143.864753 0.692074947 0)
(143.765337 0.650024991 0)
(143.674353 0.604074475 0)
(143.592379 0.554307631 0)
(143.520077 0.500838876 0)
(143.458287 0.443791678 0)
(143.407884 0.383202783 0)
(143.369548 0.31903212 0)
(143.343706 0.251182919 0)
(143.330539 0.17963202 0)
(143.330002 0.10455632 0)
(143.340256 0.0266193592 0)
(143.364588 -0.0506636898 0)
(143.407046 -0.127893303 0)
(143.468065 -0.206586265 0)
(143.546384 -0.286692548 0)
(143.641865 -0.367708265 0)
(143.754726 -0.449164924 0)
(143.884878 -0.530509583 0)
(144.032067 -0.611092135 0)
(144.195942 -0.690217699 0)
(144.375993 -0.767160333 0)
(144.571522 -0.841164315 0)
(144.781648 -0.911455604 0)
(145.005319 -0.977260997 0)
(145.241313 -1.03783201 0)
(145.488257 -1.09247174 0)
(145.744646 -1.14056135 0)
(146.008857 -1.18158279 0)
(146.279178 -1.21513585 0)
(146.55383 -1.24094884 0)
(146.831002 -1.25888348 0)
(147.108878 -1.26893477 0)
(147.385676 -1.27122693 0)
(147.659677 -1.26600587 0)
(147.929255 -1.25362868 0)
(148.192905 -1.23455035 0)
(148.449262 -1.20930825 0)
(148.697118 -1.17850487 0)
(148.935429 -1.14278965 0)
(149.163327 -1.10284078 0)
(149.380112 -1.05934772 0)
(149.585254 -1.01299497 0)
(149.778383 -0.964447927 0)
(149.95928 -0.914340701 0)
(150.127862 -0.863266215 0)
(150.28417 -0.811768317 0)
(150.428356 -0.760336102 0)
(150.560664 -0.709400662 0)
(150.68142 -0.659334015 0)
(150.791019 -0.6104502 0)
(150.889903 -0.563007443 0)
(150.978553 -0.517208252 0)
(151.057477 -0.473198297 0)
(151.127211 -0.431070082 0)
(151.188317 -0.390874087 0)
(151.241373 -0.352631139 0)
(151.286958 -0.316335135 0)
(151.325637 -0.281949497 0)
(151.357978 -0.249413364 0)
(151.38455 -0.218658916 0)
(151.405912 -0.189623932 0)
(151.422603 -0.162250543 0)
(151.43514 -0.136483493 0)
(151.444023 -0.112280773 0)
(151.449734 -0.0896290595 0)
(151.452711 -0.0685547865 0)
(151.453332 -0.0491333739 0)
(151.451883 -0.0314847086 0)
(151.448398 -0.0157236186 0)
(151.44272 -0.00175395668 0)
(151.435417 0.0108207952 0)
(151.426699 0.0220461791 0)
(151.416585 0.0319747313 0)
(151.405111 0.0407364396 0)
(151.392427 0.0484600366 0)
(151.378697 0.0552542816 0)
(151.364074 0.0612154402 0)
(151.348699 0.0664301806 0)
(151.332702 0.0709752246 0)
(151.316207 0.0749174783 0)
(151.299326 0.0783147365 0)
(151.282161 0.0812165249 0)
(151.264801 0.083665154 0)
(151.247323 0.0856970792 0)
(151.229797 0.0873444097 0)
(151.212279 0.0886363136 0)
(151.194819 0.0896000849 0)
(151.177461 0.0902617891 0)
(151.160239 0.0906465225 0)
(151.143186 0.0907784403 0)
(151.12633 0.0906806572 0)
(151.109695 0.0903751058 0)
(151.093303 0.0898823752 0)
(151.077174 0.0892215562 0)
(151.061326 0.0884101033 0)
(151.045772 0.0874637369 0)
(151.030528 0.0863964073 0)
(151.015606 0.0852203267 0)
(151.001015 0.0839460801 0)
(150.986764 0.0825828086 0)
(150.97286 0.0811384374 0)
(150.959308 0.0796199242 0)
(150.946113 0.0780334976 0)
(150.933278 0.0763848506 0)
(150.920804 0.0746792731 0)
(150.908695 0.0729217092 0)
(150.896951 0.0711167196 0)
(150.885576 0.0692684341 0)
(150.874569 0.0673799877 0)
(150.86395 0.0654547906 0)
(150.853672 0.0634880126 0)
(150.843935 0.0615015535 0)
(150.834114 0.0593745927 0)
(150.826593 0.0575812269 0)
(150.810922 0.0538929744 0)
(151.076476 -0.0389112654 0)
(151.093879 -0.115853143 0)
(151.137143 -0.175127097 0)
(151.198528 -0.200979541 0)
(151.266616 -0.186834548 0)
(151.33046 -0.134444736 0)
(151.382064 -0.0507413313 0)
(151.415033 0.0545782189 0)
(151.424583 0.166508285 0)
(151.409872 0.271535204 0)
(151.373496 0.359702771 0)
(151.31955 0.424109354 0)
(151.253345 0.461064684 0)
(151.18064 0.46999269 0)
(151.107099 0.452776052 0)
(151.037939 0.412829978 0)
(150.977748 0.354502442 0)
(150.930334 0.283293107 0)
(150.89841 0.206666966 0)
(150.882993 0.134536239 0)
(150.882711 0.0784888989 0)
(150.893438 0.0496277976 0)
(150.908669 0.0557446275 0)
(150.920356 0.0987904983 0)
(150.920098 0.174369 0)
(150.900681 0.273108734 0)
(150.857343 0.382696052 0)
(150.788363 0.490288708 0)
(150.694969 0.584711832 0)
(150.580791 0.657788584 0)
(150.451037 0.704756048 0)
(150.311643 0.724050089 0)
(150.168587 0.71678864 0)
(150.027416 0.686254257 0)
(149.892932 0.637554904 0)
(149.768916 0.577468649 0)
(149.657779 0.51431959 0)
(149.560176 0.45761868 0)
(149.474658 0.41722536 0)
(149.397562 0.401966638 0)
(149.323254 0.417926811 0)
(149.244787 0.466877956 0)
(149.15497 0.545413711 0)
(149.047674 0.64523096 0)
(148.919049 0.754686513 0)
(148.768278 0.861304593 0)
(148.597585 0.954519354 0)
(148.411515 1.02781036 0)
(148.215704 1.07959315 0)
(148.015559 1.112674 0)
(147.815221 1.13258628 0)
(147.617071 1.14548716 0)
(147.421836 1.15636343 0)
(147.229118 1.16806437 0)
(147.038073 1.18127833 0)
(146.847977 1.19519582 0)
(146.658525 1.20841237 0)
(146.469866 1.21966532 0)
(146.282452 1.22819528 0)
(146.096845 1.23374627 0)
(145.913569 1.23635965 0)
(145.733046 1.23613906 0)
(145.555608 1.2330998 0)
(145.381537 1.22712791 0)
(145.211105 1.21801332 0)
(145.044593 1.20550578 0)
(144.882304 1.18935718 0)
(144.724559 1.16933927 0)
(144.571697 1.14524366 0)
(144.42407 1.11687655 0)
(144.282055 1.08405621 0)
(144.14605 1.04661491 0)
(144.016484 1.00440377 0)
(143.893818 0.957298132 0)
(143.778553 0.905201837 0)
(143.671226 0.848049625 0)
(143.572422 0.785807593 0)
(143.482773 0.718470576 0)
(143.402962 0.64605084 0)
(143.333718 0.568554154 0)
(143.275721 0.485884313 0)
(143.229499 0.397908549 0)
(143.195497 0.304565311 0)
(143.174216 0.206021451 0)
(143.166457 0.102763656 0)
(143.174544 -0.00452445097 0)
(143.200371 -0.113864173 0)
(143.241719 -0.224678886 0)
(143.300218 -0.337623218 0)
(143.376783 -0.452406419 0)
(143.471623 -0.568323379 0)
(143.584931 -0.684677491 0)
(143.71679 -0.800671761 0)
(143.867097 -0.915372067 0)
(144.035574 -1.02775676 0)
(144.221757 -1.1367451 0)
(144.424969 -1.24121642 0)
(144.64432 -1.3400381 0)
(144.878703 -1.43209727 0)
(145.126807 -1.5163326 0)
(145.387123 -1.59176635 0)
(145.65797 -1.65753518 0)
(145.937514 -1.71291807 0)
(146.223805 -1.75735978 0)
(146.514803 -1.7904885 0)
(146.808432 -1.81212687 0)
(147.102608 -1.82229554 0)
(147.395292 -1.82120942 0)
(147.684527 -1.80926682 0)
(147.968475 -1.78703245 0)
(148.245445 -1.7552154 0)
(148.513926 -1.71464365 0)
(148.772598 -1.66623629 0)
(149.020342 -1.61097509 0)
(149.256252 -1.54987662 0)
(149.479623 -1.48396609 0)
(149.68995 -1.4142535 0)
(149.886917 -1.34171316 0)
(150.070379 -1.26726657 0)
(150.240344 -1.19176881 0)
(150.396961 -1.11599857 0)
(150.540495 -1.04065162 0)
(150.671312 -0.966337393 0)
(150.789858 -0.89357817 0)
(150.896642 -0.822810441 0)
(150.992225 -0.754388072 0)
(151.077205 -0.688585691 0)
(151.152206 -0.625602551 0)
(151.217865 -0.565569533 0)
(151.274821 -0.508559307 0)
(151.323713 -0.454596524 0)
(151.365179 -0.403668427 0)
(151.399848 -0.355733245 0)
(151.42832 -0.310724891 0)
(151.451164 -0.268558198 0)
(151.468926 -0.229141323 0)
(151.482136 -0.192392053 0)
(151.491292 -0.158235341 0)
(151.496848 -0.126596335 0)
(151.499204 -0.0974104841 0)
(151.4987 -0.0706237845 0)
(151.495604 -0.0461696669 0)
(151.490156 -0.023965668 0)
(151.482634 -0.00390415548 0)
(151.473641 0.0141764462 0)
(151.463276 0.0304910379 0)
(151.451579 0.0450602231 0)
(151.438695 0.0579445901 0)
(151.424747 0.0692850404 0)
(151.409859 0.0792300224 0)
(151.39416 0.0879130091 0)
(151.377774 0.0954552051 0)
(151.36082 0.101968203 0)
(151.343407 0.107553457 0)
(151.325636 0.112301849 0)
(151.307601 0.116294394 0)
(151.289386 0.119603271 0)
(151.271066 0.122292784 0)
(151.25271 0.124420346 0)
(151.234377 0.126037453 0)
(151.216118 0.127190607 0)
(151.197978 0.127922091 0)
(151.179997 0.128270608 0)
(151.162206 0.128271741 0)
(151.144637 0.127958317 0)
(151.127314 0.127360662 0)
(151.110259 0.126506793 0)
(151.09349 0.125422539 0)
(151.077024 0.124131625 0)
(151.060874 0.122655736 0)
(151.045052 0.121014567 0)
(151.029568 0.119225897 0)
(151.014432 0.117305669 0)
(150.99965 0.115268103 0)
(150.985227 0.113125821 0)
(150.97117 0.11088999 0)
(150.957481 0.108570466 0)
(150.944162 0.106175932 0)
(150.931215 0.103714009 0)
(150.918643 0.10119133 0)
(150.906445 0.0986135753 0)
(150.894621 0.0959854047 0)
(150.883175 0.0933104495 0)
(150.872102 0.0905905054 0)
(150.861419 0.0878277231 0)
(150.851071 0.0850117529 0)
(150.841258 0.0821737925 0)
(150.83129 0.0791388664 0)
(150.823653 0.076601598 0)
(150.807285 0.0714953542 0)
(151.077078 -0.0481104551 0)
(151.096202 -0.143897135 0)
(151.139859 -0.219349889 0)
(151.199973 -0.25596093 0)
(151.265927 -0.246222386 0)
(151.327544 -0.191779428 0)
(151.37677 -0.100651461 0)
(151.408109 0.0136153183 0)
(151.419213 0.136277644 0)
(151.406866 0.253587452 0)
(151.373054 0.353418264 0)
(151.321766 0.427383598 0)
(151.258097 0.471042721 0)
(151.187616 0.483517717 0)
(151.115859 0.466721968 0)
(151.047957 0.42430099 0)
(150.988434 0.360946855 0)
(150.941041 0.282660547 0)
(150.908456 0.197709563 0)
(150.891768 0.117212343 0)
(150.889902 0.0542778829 0)
(150.899231 0.0214773165 0)
(150.913332 0.027457456 0)
(150.923841 0.0751482386 0)
(150.922531 0.160785527 0)
(150.902789 0.274232316 0)
(150.860252 0.401497536 0)
(150.793223 0.527761165 0)
(150.702691 0.639910067 0)
(150.591886 0.728146017 0)
(150.465578 0.786597177 0)
(150.329321 0.813151827 0)
(150.188821 0.808870287 0)
(150.049448 0.777342021 0)
(149.915899 0.724245462 0)
(149.791907 0.657163551 0)
(149.679934 0.585487088 0)
(149.580811 0.520080999 0)
(149.493374 0.472386308 0)
(149.414243 0.45286159 0)
(149.33799 0.468990521 0)
(149.257855 0.523359633 0)
(149.166891 0.612488648 0)
(149.059217 0.7270034 0)
(148.931091 0.853338558 0)
(148.781538 0.97663313 0)
(148.612394 1.08402888 0)
(148.427716 1.16737061 0)
(148.232724 1.2244694 0)
(148.032589 1.25859728 0)
(147.831431 1.27652716 0)
(147.631786 1.2859324 0)
(147.434622 1.2931 0)
(147.239783 1.30165199 0)
(147.046598 1.31246629 0)
(146.854428 1.32449645 0)
(146.662977 1.33592572 0)
(146.472357 1.34512577 0)
(146.282966 1.35113648 0)
(146.095324 1.35367335 0)
(145.909928 1.35285912 0)
(145.727187 1.34891172 0)
(145.547426 1.34194025 0)
(145.370917 1.33188584 0)
(145.197921 1.31856237 0)
(145.028713 1.30172858 0)
(144.863589 1.28114319 0)
(144.702867 1.25658714 0)
(144.546885 1.22786205 0)
(144.395999 1.19478118 0)
(144.250592 1.15716371 0)
(144.11107 1.11483541 0)
(143.977874 1.0676335 0)
(143.85148 1.01541277 0)
(143.7324 0.958050748 0)
(143.621186 0.895451017 0)
(143.518436 0.827544554 0)
(143.424788 0.754288569 0)
(143.340924 0.675661781 0)
(143.267556 0.591658704 0)
(143.205414 0.502285847 0)
(143.15523 0.407619493 0)
(143.117785 0.307888714 0)
(143.093897 0.20346936 0)
(143.084082 0.0947990911 0)
(143.088428 -0.0176578407 0)
(143.109729 -0.134321591 0)
(143.148222 -0.254184813 0)
(143.204665 -0.376627063 0)
(143.279461 -0.501277625 0)
(143.37303 -0.627512516 0)
(143.485748 -0.754531768 0)
(143.617822 -0.881417356 0)
(143.769261 -1.00712726 0)
(143.939881 -1.1305144 0)
(144.129288 -1.2503527 0)
(144.336853 -1.36536008 0)
(144.561699 -1.4742274 0)
(144.802703 -1.57565419 0)
(145.058495 -1.66838871 0)
(145.327471 -1.75127006 0)
(145.607817 -1.82326961 0)
(145.897533 -1.88352841 0)
(146.194477 -1.93138812 0)
(146.496406 -1.9664133 0)
(146.801028 -1.98840441 0)
(147.106048 -1.9974009 0)
(147.409226 -1.99367513 0)
(147.70842 -1.97771763 0)
(148.001631 -1.95021508 0)
(148.287035 -1.91202227 0)
(148.563017 -1.86412993 0)
(148.828187 -1.80763015 0)
(149.081386 -1.7436811 0)
(149.321698 -1.67347308 0)
(149.548437 -1.59819687 0)
(149.761138 -1.51901569 0)
(149.959544 -1.43704148 0)
(150.143585 -1.35331575 0)
(150.313354 -1.26879505 0)
(150.469092 -1.18434099 0)
(150.611157 -1.10071439 0)
(150.740006 -1.01857303 0)
(150.856177 -0.938472533 0)
(150.960268 -0.860869704 0)
(151.052919 -0.786127869 0)
(151.134795 -0.714524349 0)
(151.206577 -0.646259189 0)
(151.268952 -0.581463724 0)
(151.322608 -0.520208644 0)
(151.368225 -0.462512288 0)
(151.406457 -0.408352189 0)
(151.437935 -0.357676415 0)
(151.463276 -0.310407665 0)
(151.483078 -0.266445754 0)
(151.497898 -0.225668882 0)
(151.508253 -0.187934012 0)
(151.514651 -0.153093099 0)
(151.517579 -0.120995724 0)
(151.517492 -0.0914868314 0)
(151.51483 -0.064442615 0)
(151.510004 -0.0397784283 0)
(151.503349 -0.0174229544 0)
(151.49509 0.00270356469 0)
(151.485301 0.0208537587 0)
(151.473826 0.0371475509 0)
(151.461018 0.0516884298 0)
(151.447062 0.0645894827 0)
(151.432093 0.0759732359 0)
(151.416251 0.0859649588 0)
(151.399667 0.0946876122 0)
(151.382466 0.102256578 0)
(151.364767 0.108779246 0)
(151.346676 0.114355035 0)
(151.32829 0.11907452 0)
(151.309702 0.123019279 0)
(151.290991 0.1262625 0)
(151.27223 0.128869806 0)
(151.253483 0.13090017 0)
(151.234803 0.132406852 0)
(151.216238 0.133438277 0)
(151.197827 0.134038784 0)
(151.179606 0.134249198 0)
(151.161603 0.134107215 0)
(151.143846 0.133647669 0)
(151.126355 0.132902697 0)
(151.10915 0.131901856 0)
(151.092246 0.130672211 0)
(151.07566 0.129238405 0)
(151.059404 0.127622736 0)
(151.043488 0.125845248 0)
(151.027922 0.123923837 0)
(151.012713 0.121874387 0)
(150.997868 0.119710924 0)
(150.983392 0.117445797 0)
(150.969288 0.115089862 0)
(150.955558 0.112652661 0)
(150.942205 0.110142588 0)
(150.929228 0.107567013 0)
(150.916629 0.10493236 0)
(150.904406 0.102244133 0)
(150.892559 0.0995068564 0)
(150.881088 0.0967240956 0)
(150.869988 0.0938976338 0)
(150.859275 0.0910301988 0)
(150.848892 0.0881116267 0)
(150.839036 0.085178778 0)
(150.829043 0.0820521564 0)
(150.821372 0.079468076 0)
(150.805292 0.0742988896 0)
(151.077018 -0.0615348071 0)
(151.096191 -0.185187969 0)
(151.141359 -0.284185208 0)
(151.205076 -0.333812368 0)
(151.276314 -0.323688559 0)
(151.343749 -0.255698027 0)
(151.397775 -0.140031414 0)
(151.431144 0.00706632819 0)
(151.443353 0.166405868 0)
(151.430956 0.318260412 0)
(151.39501 0.447312373 0)
(151.339796 0.543136734 0)
(151.270965 0.600136358 0)
(151.194701 0.617176578 0)
(151.117214 0.596609287 0)
(151.044324 0.542958046 0)
(150.981191 0.462077478 0)
(150.9321 0.361494701 0)
(150.90008 0.251640076 0)
(150.886264 0.146646194 0)
(150.8891 0.0633437131 0)
(150.903817 0.0183134913 0)
(150.923796 0.0236466817 0)
(150.941567 0.0833388048 0)
(150.948304 0.191802972 0)
(150.935639 0.335771017 0)
(150.898004 0.497429396 0)
(150.833199 0.657899122 0)
(150.742201 0.80048573 0)
(150.6286 0.912781776 0)
(150.497783 0.98741851 0)
(150.356071 1.02178127 0)
(150.209982 1.01719291 0)
(150.065687 0.97806658 0)
(149.928603 0.911366825 0)
(149.803038 0.826439638 0)
(149.691787 0.734970467 0)
(149.595692 0.650640988 0)
(149.51329 0.588043482 0)
(149.440731 0.560665115 0)
(149.372035 0.578241418 0)
(149.299765 0.644224658 0)
(149.216124 0.754269161 0)
(149.114341 0.896461823 0)
(148.989973 1.05353843 0)
(148.841724 1.20662389 0)
(148.671545 1.33943576 0)
(148.483947 1.44168056 0)
(148.284789 1.51062065 0)
(148.079883 1.55042032 0)
(147.873864 1.56967184 0)
(147.669592 1.57811958 0)
(147.468159 1.58377408 0)
(147.269375 1.59128783 0)
(147.072454 1.60183903 0)
(146.876616 1.61415332 0)
(146.681447 1.62595737 0)
(146.486977 1.63519621 0)
(146.293564 1.64065144 0)
(146.101702 1.64196233 0)
(145.911876 1.63929354 0)
(145.724478 1.6329413 0)
(145.539815 1.62307186 0)
(145.358139 1.60964155 0)
(145.179694 1.59244394 0)
(145.004739 1.57119828 0)
(144.833556 1.54561723 0)
(144.666458 1.51543513 0)
(144.503779 1.48040716 0)
(144.345881 1.44029864 0)
(144.193155 1.39487813 0)
(144.046029 1.34391811 0)
(143.904965 1.28720092 0)
(143.77047 1.22452575 0)
(143.643095 1.15571401 0)
(143.523433 1.08061228 0)
(143.412126 0.99909356 0)
(143.309856 0.911057205 0)
(143.217344 0.816428727 0)
(143.135345 0.715161292 0)
(143.064634 0.607240978 0)
(143.005992 0.492702068 0)
(142.960202 0.371635661 0)
(142.928009 0.24417214 0)
(142.910342 0.110511306 0)
(142.909065 -0.0288626569 0)
(142.926621 -0.172764699 0)
(142.961653 -0.320783075 0)
(143.015096 -0.472454233 0)
(143.087826 -0.627076109 0)
(143.180509 -0.783755909 0)
(143.293651 -0.941465719 0)
(143.427607 -1.09903642 0)
(143.582536 -1.25514639 0)
(143.758372 -1.40833958 0)
(143.9548 -1.55705553 0)
(144.171232 -1.69966308 0)
(144.406783 -1.83450093 0)
(144.660268 -1.95992445 0)
(144.9302 -2.07435561 0)
(145.214806 -2.17633441 0)
(145.512051 -2.2645692 0)
(145.819673 -2.33798314 0)
(146.135235 -2.39575392 0)
(146.456173 -2.43734395 0)
(146.779864 -2.46251893 0)
(147.103687 -2.47135344 0)
(147.425084 -2.4642236 0)
(147.741627 -2.44178731 0)
(148.05106 -2.40495403 0)
(148.35135 -2.35484647 0)
(148.640717 -2.29275677 0)
(148.917654 -2.22010004 0)
(149.180936 -2.13836766 0)
(149.429624 -2.04908292 0)
(149.663049 -1.95376034 0)
(149.880803 -1.85387023 0)
(150.082712 -1.75080926 0)
(150.268815 -1.64587727 0)
(150.43933 -1.54026018 0)
(150.594634 -1.43501884 0)
(150.735227 -1.33108303 0)
(150.861714 -1.22925024 0)
(150.974772 -1.13018825 0)
(151.075134 -1.0344408 0)
(151.163567 -0.942435357 0)
(151.240857 -0.854491916 0)
(151.307797 -0.770832496 0)
(151.365173 -0.691591892 0)
(151.413754 -0.616830648 0)
(151.454287 -0.546548516 0)
(151.487492 -0.48069262 0)
(151.514059 -0.419163424 0)
(151.534644 -0.361826124 0)
(151.549868 -0.308526058 0)
(151.560326 -0.259096549 0)
(151.566577 -0.213358614 0)
(151.569129 -0.171134929 0)
(151.568442 -0.132281761 0)
(151.564885 -0.0966857052 0)
(151.558713 -0.0642183328 0)
(151.550133 -0.0347277256 0)
(151.539379 -0.00803628832 0)
(151.527265 0.0159474717 0)
(151.513952 0.0373231671 0)
(151.499419 0.0563945631 0)
(151.483803 0.0733444276 0)
(151.46727 0.0883256829 0)
(151.449959 0.101497807 0)
(151.431993 0.113015713 0)
(151.413491 0.123026179 0)
(151.394558 0.131666056 0)
(151.375296 0.139061793 0)
(151.355794 0.145330186 0)
(151.336132 0.150578593 0)
(151.316383 0.154905019 0)
(151.296615 0.158398513 0)
(151.276886 0.16113974 0)
(151.257249 0.163201614 0)
(151.237752 0.164649996 0)
(151.218436 0.165544422 0)
(151.199337 0.165938815 0)
(151.180488 0.165882152 0)
(151.161913 0.165419036 0)
(151.143638 0.164590185 0)
(151.125679 0.163432821 0)
(151.108054 0.161980992 0)
(151.090774 0.160265815 0)
(151.073852 0.158315687 0)
(151.057294 0.15615645 0)
(151.041109 0.153811542 0)
(151.025301 0.151302142 0)
(151.009875 0.148647301 0)
(150.994834 0.145864078 0)
(150.980179 0.142967673 0)
(150.965913 0.139971559 0)
(150.952036 0.136887594 0)
(150.938547 0.133726143 0)
(150.925447 0.130496168 0)
(150.912735 0.127205307 0)
(150.900409 0.123859928 0)
(150.888466 0.120465122 0)
(150.876908 0.11702484 0)
(150.865726 0.113541031 0)
(150.854934 0.110017193 0)
(150.844471 0.106441582 0)
(150.834536 0.1028608 0)
(150.824423 0.0990571485 0)
(150.81666 0.095929747 0)
(150.800048 0.0896701465 0)
(151.077219 -0.0742665149 0)
(151.096991 -0.224098887 0)
(151.142698 -0.345835575 0)
(151.206645 -0.410449495 0)
(151.277885 -0.405519395 0)
(151.345486 -0.332548707 0)
(151.400559 -0.202679186 0)
(151.436571 -0.0346443194 0)
(151.450922 0.148318471 0)
(151.439172 0.323708927 0)
(151.403857 0.473517198 0)
(151.349232 0.585457356 0)
(151.280718 0.652997125 0)
(151.204451 0.674682719 0)
(151.126637 0.652983315 0)
(151.053119 0.592847574 0)
(150.989111 0.500796775 0)
(150.938963 0.385350019 0)
(150.905815 0.258466406 0)
(150.891036 0.136475381 0)
(150.893787 0.0389708737 0)
(150.910668 -0.0150528986 0)
(150.934074 -0.0111216376 0)
(150.954292 0.0556236441 0)
(150.962263 0.179433016 0)
(150.950784 0.345595896 0)
(150.914925 0.53347032 0)
(150.852345 0.721011084 0)
(150.763736 0.888624506 0)
(150.652411 1.02162341 0)
(150.523529 1.11117442 0)
(150.383269 1.15401135 0)
(150.238095 1.15148241 0)
(150.094185 1.10853653 0)
(149.957002 1.03306981 0)
(149.830932 0.935727354 0)
(149.718921 0.829888295 0)
(149.62208 0.731289958 0)
(149.539262 0.656799177 0)
(149.466779 0.622156174 0)
(149.39859 0.638947573 0)
(149.327083 0.711621695 0)
(149.244308 0.835621583 0)
(149.143379 0.997490048 0)
(149.019738 1.1772768 0)
(148.871932 1.35282452 0)
(148.70172 1.50475403 0)
(148.513459 1.62061261 0)
(148.31295 1.69689465 0)
(148.106067 1.73839704 0)
(147.89759 1.75533791 0)
(147.690548 1.75943935 0)
(147.486181 1.76041927 0)
(147.284399 1.76397595 0)
(147.084457 1.7715974 0)
(146.885579 1.7817711 0)
(146.687331 1.7917449 0)
(146.489719 1.79901991 0)
(146.293079 1.80212034 0)
(146.09789 1.80063124 0)
(145.904619 1.79479573 0)
(145.713643 1.78502958 0)
(145.525247 1.77159416 0)
(145.339661 1.75449228 0)
(145.157103 1.7335225 0)
(144.977811 1.70838676 0)
(144.80205 1.6787748 0)
(144.63012 1.64439971 0)
(144.462352 1.60499665 0)
(144.299107 1.56030842 0)
(144.140783 1.51007573 0)
(143.987819 1.45403702 0)
(143.840693 1.39193509 0)
(143.699931 1.32352556 0)
(143.566101 1.24858402 0)
(143.439817 1.16691081 0)
(143.32174 1.07833447 0)
(143.212572 0.982714326 0)
(143.11306 0.879943386 0)
(143.023993 0.769952482 0)
(142.946197 0.652717388 0)
(142.880531 0.528270908 0)
(142.827893 0.396720911 0)
(142.78923 0.258270235 0)
(142.765449 0.113269817 0)
(142.758058 -0.0379287684 0)
(142.769774 -0.19507616 0)
(142.799617 -0.357611602 0)
(142.848703 -0.524856097 0)
(142.917967 -0.696038376 0)
(143.008241 -0.870208003 0)
(143.120242 -1.04620991 0)
(143.254519 -1.22269609 0)
(143.41141 -1.39813359 0)
(143.591004 -1.57081914 0)
(143.79311 -1.73890611 0)
(144.017216 -1.9004416 0)
(144.262464 -2.05341455 0)
(144.527633 -2.19581404 0)
(144.811137 -2.3256951 0)
(145.11103 -2.44124828 0)
(145.425041 -2.54086815 0)
(145.750613 -2.62321626 0)
(146.084964 -2.68727409 0)
(146.425156 -2.7323824 0)
(146.768176 -2.75826448 0)
(147.111015 -2.76503198 0)
(147.450748 -2.75317357 0)
(147.784612 -2.72352749 0)
(148.110065 -2.67724067 0)
(148.424842 -2.61571751 0)
(148.726989 -2.54056206 0)
(149.014886 -2.45351737 0)
(149.287254 -2.35640547 0)
(149.543156 -2.25107109 0)
(149.781972 -2.13933125 0)
(150.003381 -2.02293224 0)
(150.207332 -1.90351506 0)
(150.394005 -1.7825893 0)
(150.563779 -1.66151501 0)
(150.717197 -1.54149237 0)
(150.854928 -1.42355764 0)
(150.977742 -1.30858471 0)
(151.086473 -1.1972908 0)
(151.182005 -1.09024553 0)
(151.265239 -0.987882339 0)
(151.337083 -0.890511642 0)
(151.398436 -0.798335239 0)
(151.450171 -0.71146073 0)
(151.493137 -0.629915096 0)
(151.528145 -0.553657579 0)
(151.555965 -0.48259257 0)
(151.577323 -0.416582486 0)
(151.592898 -0.355459229 0)
(151.603328 -0.299031044 0)
(151.609194 -0.247091303 0)
(151.611026 -0.199431367 0)
(151.609289 -0.15583541 0)
(151.604395 -0.116077792 0)
(151.596779 -0.0799296164 0)
(151.586925 -0.0471538451 0)
(151.575302 -0.0175133065 0)
(151.562346 0.00922055418 0)
(151.548245 0.0333423139 0)
(151.532763 0.0549569467 0)
(151.516155 0.0742084181 0)
(151.498603 0.0912749084 0)
(151.480264 0.10632174 0)
(151.461275 0.11950849 0)
(151.441761 0.130990183 0)
(151.421833 0.140914793 0)
(151.401594 0.149421705 0)
(151.381137 0.156640733 0)
(151.360548 0.162692086 0)
(151.339902 0.167686537 0)
(151.319269 0.171725624 0)
(151.29871 0.174902124 0)
(151.278279 0.177300672 0)
(151.258021 0.178998385 0)
(151.237976 0.180065459 0)
(151.218177 0.18056576 0)
(151.198652 0.180557369 0)
(151.179425 0.180093091 0)
(151.160515 0.179220906 0)
(151.14194 0.17798438 0)
(151.123715 0.176423032 0)
(151.105852 0.174572667 0)
(151.088359 0.172465669 0)
(151.071247 0.170131266 0)
(151.054522 0.167595766 0)
(151.038189 0.164882772 0)
(151.022253 0.162013387 0)
(151.006717 0.159006418 0)
(150.991581 0.155878563 0)
(150.976848 0.152644609 0)
(150.962516 0.149317605 0)
(150.948585 0.145909029 0)
(150.935052 0.142428929 0)
(150.921916 0.138886044 0)
(150.909173 0.135287884 0)
(150.89682 0.131640792 0)
(150.884853 0.127949925 0)
(150.873271 0.124219434 0)
(150.862063 0.120451536 0)
(150.851243 0.116650618 0)
(150.840749 0.112804742 0)
(150.830776 0.108967419 0)
(150.820641 0.104905468 0)
(150.81285 0.10159635 0)
(150.796478 0.0950000187 0)
(151.077402 -0.0872548209 0)
(151.098 -0.264098065 0)
(151.14532 -0.408905834 0)
(151.211656 -0.4871634 0)
(151.28567 -0.483911213 0)
(151.355924 -0.400613501 0)
(151.412844 -0.250076713 0)
(151.448636 -0.0543258361 0)
(151.462687 0.159105868 0)
(151.452191 0.364444233 0)
(151.417032 0.540358945 0)
(151.361389 0.672271982 0)
(151.291101 0.752389476 0)
(151.212662 0.778840138 0)
(151.132695 0.754348911 0)
(151.05748 0.684585155 0)
(150.992637 0.577115377 0)
(150.942851 0.441887678 0)
(150.911451 0.292883505 0)
(150.899753 0.149195648 0)
(150.905919 0.0336590749 0)
(150.926089 -0.0308980968 0)
(150.951944 -0.0283347432 0)
(150.975219 0.0474441582 0)
(150.988283 0.190695274 0)
(150.981857 0.38424297 0)
(150.949771 0.604000868 0)
(150.88953 0.824139085 0)
(150.801898 1.02156384 0)
(150.690348 1.17889399 0)
(150.560318 1.28560961 0)
(150.41835 1.33772032 0)
(150.271318 1.33664219 0)
(150.12582 1.28800073 0)
(149.987703 1.20086681 0)
(149.861643 1.08753646 0)
(149.750679 0.96354323 0)
(149.655732 0.847291336 0)
(149.575311 0.758659031 0)
(149.505476 0.716294307 0)
(149.440084 0.734024608 0)
(149.371458 0.817316145 0)
(149.291483 0.960999909 0)
(149.192953 1.14937567 0)
(149.070913 1.35908146 0)
(148.923601 1.56413051 0)
(148.752651 1.7417294 0)
(148.562474 1.87713433 0)
(148.359048 1.96605132 0)
(148.148489 2.01393568 0)
(147.935831 2.03266714 0)
(147.724338 2.03598432 0)
(147.515431 2.0353626 0)
(147.309129 2.03761412 0)
(147.104735 2.04461869 0)
(146.901464 2.05470717 0)
(146.698849 2.06471251 0)
(146.496849 2.07172687 0)
(146.295758 2.07402239 0)
(146.09602 2.07111358 0)
(145.898069 2.0632959 0)
(145.702254 2.05107842 0)
(145.508826 2.03479591 0)
(145.317983 2.01448066 0)
(145.129908 1.98992145 0)
(144.944806 1.96078749 0)
(144.762914 1.92672691 0)
(144.584506 1.88740879 0)
(144.409893 1.84252236 0)
(144.239423 1.79176111 0)
(144.07349 1.73481212 0)
(143.912532 1.67135655 0)
(143.757037 1.60107775 0)
(143.607549 1.52367132 0)
(143.464666 1.43885313 0)
(143.329038 1.34636432 0)
(143.20137 1.24597439 0)
(143.082413 1.13748346 0)
(142.97297 1.02072498 0)
(142.873885 0.895569911 0)
(142.786048 0.761933151 0)
(142.710392 0.619782641 0)
(142.647894 0.46915097 0)
(142.599579 0.31014786 0)
(142.566558 0.14296384 0)
(142.55068 -0.0320458777 0)
(142.555306 -0.214338285 0)
(142.578967 -0.403282352 0)
(142.622827 -0.598143848 0)
(142.688043 -0.79800536 0)
(142.775698 -1.0017333 0)
(142.886741 -1.20797208 0)
(143.021957 -1.41513471 0)
(143.181912 -1.62139897 0)
(143.366897 -1.82472162 0)
(143.576878 -2.02287034 0)
(143.811441 -2.21347 0)
(144.069755 -2.39406303 0)
(144.350543 -2.562182 0)
(144.652077 -2.71543173 0)
(144.972181 -2.85157677 0)
(145.308271 -2.9686291 0)
(145.657403 -3.06493007 0)
(146.01635 -3.13922068 0)
(146.381688 -3.19069457 0)
(146.7499 -3.21902955 0)
(147.117478 -3.22439544 0)
(147.481025 -3.20743812 0)
(147.837352 -3.16924183 0)
(148.183554 -3.11127336 0)
(148.517075 -3.03531301 0)
(148.835748 -2.94337775 0)
(149.137822 -2.83764179 0)
(149.421962 -2.72035926 0)
(149.687243 -2.59379302 0)
(149.933118 -2.46015231 0)
(150.159389 -2.32154082 0)
(150.366164 -2.17991633 0)
(150.55381 -2.03706146 0)
(150.72291 -1.89456485 0)
(150.874218 -1.75381183 0)
(151.008617 -1.61598301 0)
(151.127082 -1.48205922 0)
(151.230643 -1.35283161 0)
(151.320365 -1.22891526 0)
(151.397314 -1.11076523 0)
(151.462545 -0.99869367 0)
(151.517086 -0.892887412 0)
(151.561925 -0.793425387 0)
(151.598001 -0.700295659 0)