/*--------------------------------*- C++ -*----------------------------------*\
| =========                 |                                                 |
| \\      /  F ield         | OpenFOAM: The Open Source CFD Toolbox           |
|  \\    /   O peration     | Version:  v2012                                 |
|   \\  /    A nd           | Website:  www.openfoam.com                      |
|    \\/     M anipulation  |                                                 |
\*---------------------------------------------------------------------------*/
FoamFile
{
    version     2.0;
    format      ascii;
    class       volVectorField;
    location    "2.74";
    object      HbyA;
}
// * * * * * * * * * * * * * * * * * * * * * * * * * * * * * * * * * * * * * //

dimensions      [0 1 -1 0 0 0 0];


internalField   nonuniform List<vector> 
28416
(
(0.100001892 -1.22047929e-05 0)
(0.100016765 -3.64997797e-05 0)
(0.10004486 -5.48053667e-05 0)
(0.100081796 -6.10712251e-05 0)
(0.100120799 -5.25954431e-05 0)
(0.100155497 -3.01611132e-05 0)
(0.100180337 3.61203587e-06 0)
(0.100194523 4.60049411e-05 0)
(0.100198551 9.05519772e-05 0)
(0.100190458 0.000131920477 0)
(0.100170468 0.000166484314 0)
(0.100140842 0.000191485299 0)
(0.10010449 0.000205312151 0)
(0.100064545 0.000207645002 0)
(0.100024078 0.000199251904 0)
(0.09998586 0.000181617029 0)
(0.0999522619 0.0001566654 0)
(0.0999251716 0.000126805594 0)
(0.0999058161 9.52147471e-05 0)
(0.0998944734 6.59929708e-05 0)
(0.0998901913 4.38103581e-05 0)
(0.0998906557 3.29762756e-05 0)
(0.0998923365 3.63209715e-05 0)
(0.0998908423 5.44280072e-05 0)
(0.09988164 8.55195098e-05 0)
(0.0998611455 0.000125890799 0)
(0.0998273726 0.000170638113 0)
(0.0997799074 0.00021459105 0)
(0.0997196986 0.000253157845 0)
(0.0996487778 0.000282840323 0)
(0.0995698391 0.000301445033 0)
(0.0994858215 0.00030810178 0)
(0.0993996122 0.000303171968 0)
(0.099313867 0.000288112652 0)
(0.0992308949 0.000265334779 0)
(0.0991525395 0.000238059216 0)
(0.099080004 0.000210140151 0)
(0.099013622 0.000185788155 0)
(0.0989526156 0.000169147053 0)
(0.09889495 0.000163749991 0)
(0.0988374593 0.000171936718 0)
(0.0987763463 0.000194339728 0)
(0.0987079456 0.000229571587 0)
(0.0986294689 0.000274281772 0)
(0.0985394992 0.000323705345 0)
(0.0984381464 0.000372637147 0)
(0.0983268724 0.000416556588 0)
(0.0982080506 0.000452544483 0)
(0.098084385 0.000479705585 0)
(0.0979583501 0.000498994579 0)
(0.097831796 0.000512561393 0)
(0.0977057975 0.000522891982 0)
(0.097580743 0.000532057343 0)
(0.0974565795 0.000541291212 0)
(0.0973330987 0.000550951939 0)
(0.0972101593 0.000560769631 0)
(0.0970877946 0.000570200616 0)
(0.0969662114 0.000578724961 0)
(0.0968457237 0.000585999789 0)
(0.096726674 0.000591869771 0)
(0.0966093776 0.00059629351 0)
(0.096494102 0.000599255202 0)
(0.0963810727 0.000600707045 0)
(0.0962704903 0.00060055363 0)
(0.0961625469 0.000598665405 0)
(0.0960574358 0.000594900978 0)
(0.0959553554 0.000589123936 0)
(0.0958565092 0.000581210297 0)
(0.0957611059 0.000571049524 0)
(0.0956693602 0.000558543411 0)
(0.0955814955 0.000543605664 0)
(0.0954977473 0.000526163066 0)
(0.0954183657 0.000506157876 0)
(0.0953436179 0.000483550744 0)
(0.0952737914 0.00045832355 0)
(0.0952091972 0.000430481776 0)
(0.0951501747 0.000400056034 0)
(0.0950971021 0.000367101999 0)
(0.0950504118 0.000331695345 0)
(0.0950106502 0.000293917743 0)
(0.0949783966 0.00025379348 0)
(0.0949541019 0.000211295975 0)
(0.0949380436 0.000166361088 0)
(0.0949303405 0.000118973451 0)
(0.0949309647 6.92502073e-05 0)
(0.0949387044 1.76308285e-05 0)
(0.0949545122 -3.35560268e-05 0)
(0.0949817978 -8.47066878e-05 0)
(0.09502124 -0.000136825454 0)
(0.0950720052 -0.000189878941 0)
(0.0951340057 -0.00024353318 0)
(0.0952073893 -0.000297477661 0)
(0.0952920999 -0.000351345971 0)
(0.0953879747 -0.000404707385 0)
(0.0954947885 -0.000457101582 0)
(0.0956122109 -0.00050804773 0)
(0.0957397887 -0.000557045349 0)
(0.0958769503 -0.000603581908 0)
(0.0960230094 -0.000647145517 0)
(0.096177171 -0.000687240736 0)
(0.0963385404 -0.000723406376 0)
(0.0965061341 -0.000755233004 0)
(0.0966788933 -0.000782377995 0)
(0.0968556984 -0.00080457679 0)
(0.0970353869 -0.000821649974 0)
(0.0972167727 -0.000833506463 0)
(0.0973986677 -0.000840143421 0)
(0.0975799038 -0.000841643535 0)
(0.0977593538 -0.000838170028 0)
(0.0979359515 -0.000829959679 0)
(0.0981087086 -0.000817314029 0)
(0.0982767282 -0.00080058908 0)
(0.0984392155 -0.000780183883 0)
(0.0985954844 -0.000756528512 0)
(0.0987449609 -0.00073007201 0)
(0.0988871837 -0.000701270809 0)
(0.0990218014 -0.000670578045 0)
(0.0991485677 -0.000638434123 0)
(0.0992673352 -0.000605258739 0)
(0.0993780462 -0.000571444292 0)
(0.0994807243 -0.000537350675 0)
(0.0995754653 -0.000503301527 0)
(0.099662427 -0.000469582094 0)
(0.0997418209 -0.000436438515 0)
(0.0998139021 -0.000404078552 0)
(0.0998789598 -0.000372673032 0)
(0.0999373069 -0.000342355908 0)
(0.0999892749 -0.000313223519 0)
(0.100035214 -0.000285337019 0)
(0.100075492 -0.000258729758 0)
(0.100110488 -0.000233415464 0)
(0.100140579 -0.00020939005 0)
(0.100166137 -0.000186629262 0)
(0.100187533 -0.000165092783 0)
(0.100205141 -0.000144735691 0)
(0.100219326 -0.00012551678 0)
(0.100230442 -0.000107397728 0)
(0.100238826 -9.03419454e-05 0)
(0.100244809 -7.43216167e-05 0)
(0.100248703 -5.93279151e-05 0)
(0.100250796 -4.53783355e-05 0)
(0.100251336 -3.25227996e-05 0)
(0.100250509 -2.08406658e-05 0)
(0.100248339 -1.04079453e-05 0)
(0.100244679 -1.16099885e-06 0)
(0.100239743 7.16261593e-06 0)
(0.100233884 1.45930287e-05 0)
(0.100227131 2.11650234e-05 0)
(0.100219504 2.69646495e-05 0)
(0.100211099 3.20771231e-05 0)
(0.100202022 3.65744378e-05 0)
(0.100192373 4.05203165e-05 0)
(0.100182241 4.39721281e-05 0)
(0.100171712 4.69806567e-05 0)
(0.100160865 4.95901897e-05 0)
(0.100149772 5.18389819e-05 0)
(0.100138501 5.37598152e-05 0)
(0.100127107 5.53806955e-05 0)
(0.100115643 5.67257524e-05 0)
(0.100104152 5.7816239e-05 0)
(0.100092671 5.86714613e-05 0)
(0.100081233 5.93094856e-05 0)
(0.100069864 5.97475639e-05 0)
(0.100058589 6.00023079e-05 0)
(0.100047428 6.00897054e-05 0)
(0.100036399 6.00250561e-05 0)
(0.100025518 5.98228771e-05 0)
(0.100014797 5.94967967e-05 0)
(0.100004251 5.90594508e-05 0)
(0.0999938906 5.85223926e-05 0)
(0.0999837252 5.7896028e-05 0)
(0.0999737639 5.71895903e-05 0)
(0.0999640143 5.64111629e-05 0)
(0.099954483 5.55677526e-05 0)
(0.0999451754 5.46654096e-05 0)
(0.0999360959 5.37093796e-05 0)
(0.0999272479 5.27042684e-05 0)
(0.0999186341 5.16541985e-05 0)
(0.0999102564 5.05629383e-05 0)
(0.0999021164 4.94339893e-05 0)
(0.0998942152 4.82706244e-05 0)
(0.099886554 4.70758622e-05 0)
(0.0998791349 4.58524363e-05 0)
(0.0998719571 4.46024223e-05 0)
(0.0998650336 4.33280771e-05 0)
(0.0998583335 4.20262036e-05 0)
(0.0998519887 4.07112983e-05 0)
(0.0998455871 3.93033838e-05 0)
(0.0998406999 3.8116289e-05 0)
(0.0998324115 3.56755699e-05 0)
(0.100001318 -2.5756345e-05 0)
(0.100014178 -7.66871363e-05 0)
(0.10004213 -0.000115921788 0)
(0.100082166 -0.000133033489 0)
(0.100126834 -0.000123670062 0)
(0.10016895 -8.89919194e-05 0)
(0.100203245 -3.35868457e-05 0)
(0.10022483 3.61264839e-05 0)
(0.100230416 0.000110214567 0)
(0.100220155 0.000179732668 0)
(0.10019581 0.000238091288 0)
(0.100160108 0.000280722741 0)
(0.100116548 0.000305184686 0)
(0.100068903 0.00031109574 0)
(0.10002087 0.000299701701 0)
(0.0999758427 0.000273262633 0)
(0.0999367962 0.000234656025 0)
(0.0999061907 0.000187521848 0)
(0.0998857569 0.000136801219 0)
(0.0998761023 8.90554655e-05 0)
(0.0998762593 5.19554398e-05 0)
(0.0998834607 3.28509723e-05 0)
(0.0998934015 3.68999376e-05 0)
(0.0999008013 6.53937629e-05 0)
(0.0999001844 0.000115421971 0)
(0.0998868807 0.000180781024 0)
(0.0998578493 0.00025332015 0)
(0.0998120413 0.000324539082 0)
(0.09975033 0.000387041444 0)
(0.0996751429 0.00043541524 0)
(0.0995899195 0.000466507904 0)
(0.099498555 0.000479283813 0)
(0.0994049557 0.000474482344 0)
(0.0993127334 0.000454275545 0)
(0.099225 0.000422043817 0)
(0.0991441873 0.000382273315 0)
(0.0990718258 0.000340473987 0)
(0.0990082846 0.000302941878 0)
(0.0989525569 0.000276204119 0)
(0.0989021918 0.00026610462 0)
(0.0988534617 0.000276671657 0)
(0.0988018074 0.000309078708 0)
(0.0987425399 0.000361071005 0)
(0.0986716939 0.000427152132 0)
(0.0985868194 0.000499614679 0)
(0.0984874571 0.000570200183 0)
(0.0983751296 0.000631914475 0)
(0.0982528524 0.000680441137 0)
(0.0981243281 0.00071473096 0)
(0.0979930809 0.00073664116 0)
(0.0978617875 0.000749834271 0)
(0.0977319695 0.000758385978 0)
(0.0976040713 0.000765597433 0)
(0.0974778136 0.000773354906 0)
(0.0973526384 0.000782114181 0)
(0.0972280756 0.0007913394 0)
(0.0971039353 0.000800100758 0)
(0.0969803225 0.000807562261 0)
(0.0968575384 0.000813221061 0)
(0.0967359525 0.000816907582 0)
(0.0966159076 0.000818649085 0)
(0.0964976804 0.000818514092 0)
(0.0963814882 0.000816512643 0)
(0.0962675161 0.000812569171 0)
(0.0961559425 0.000806544506 0)
(0.0960469546 0.000798272838 0)
(0.095940752 0.000787589785 0)
(0.0958375466 0.000774344091 0)
(0.0957375607 0.000758397646 0)
(0.095641028 0.000739622013 0)
(0.0955481948 0.000717896723 0)
(0.0954593239 0.000693110577 0)
(0.0953746972 0.000665164866 0)
(0.0952946183 0.000633976922 0)
(0.0952194147 0.000599482935 0)
(0.09514944 0.000561639578 0)
(0.0950850768 0.000520424288 0)
(0.0950267403 0.000475833548 0)
(0.0949748785 0.0004278754 0)
(0.0949299672 0.000376553598 0)
(0.0948924547 0.000321804385 0)
(0.0948626878 0.000263539806 0)
(0.0948409554 0.000201719088 0)
(0.0948275852 0.000136452758 0)
(0.0948230985 6.8063208e-05 0)
(0.0948289461 -2.99668435e-06 0)
(0.0948452833 -7.54151663e-05 0)
(0.0948717249 -0.000148809115 0)
(0.0949093892 -0.000223611757 0)
(0.0949588799 -0.000299630149 0)
(0.0950203358 -0.000376396929 0)
(0.0950938864 -0.000453450395 0)
(0.0951795903 -0.000530262401 0)
(0.0952773838 -0.000606214053 0)
(0.0953870911 -0.000680628576 0)
(0.0955084127 -0.000752790165 0)
(0.0956409113 -0.000821956686 0)
(0.0957840086 -0.000887378232 0)
(0.0959369864 -0.000948318098 0)
(0.0960989903 -0.00100407385 0)
(0.0962690381 -0.00105399854 0)
(0.0964460327 -0.00109752108 0)
(0.0966287775 -0.00113416472 0)
(0.0968159969 -0.00116356252 0)
(0.0970063594 -0.00118546909 0)
(0.0971985042 -0.00119976774 0)
(0.0973910685 -0.0012064729 0)
(0.0975827157 -0.00120572753 0)
(0.0977721622 -0.00119779595 0)
(0.0979582013 -0.00118305257 0)
(0.0981397241 -0.00116196727 0)
(0.0983157357 -0.00113508852 0)
(0.098485367 -0.00110302499 0)
(0.098647882 -0.00106642676 0)
(0.0988026803 -0.00102596684 0)
(0.0989492962 -0.00098232386 0)
(0.099087394 -0.000936166346 0)
(0.0992167606 -0.000888139112 0)
(0.099337296 -0.00083885198 0)
(0.0994490024 -0.000788870793 0)
(0.0995519719 -0.000738710796 0)
(0.0996463748 -0.000688832336 0)
(0.0997324467 -0.000639638635 0)
(0.0998104767 -0.000591475213 0)
(0.0998807964 -0.000544630822 0)
(0.0999437704 -0.00049933954 0)
(0.0999997887 -0.000455783012 0)
(0.100049259 -0.000414093006 0)
(0.100092596 -0.000374356051 0)
(0.100130219 -0.000336620164 0)
(0.100162546 -0.000300901587 0)
(0.100189995 -0.000267191819 0)
(0.100212977 -0.000235463164 0)
(0.100231885 -0.000205671842 0)
(0.100247093 -0.00017776145 0)
(0.100258958 -0.000151671177 0)
(0.100267827 -0.000127346588 0)
(0.100274028 -0.000104738001 0)
(0.100277858 -8.37958649e-05 0)
(0.10027958 -6.44774506e-05 0)
(0.100279416 -4.67470139e-05 0)
(0.100277541 -3.05604949e-05 0)
(0.100274112 -1.58633152e-05 0)
(0.100269314 -2.58423675e-06 0)
(0.100263385 9.3836688e-06 0)
(0.100256501 2.01826137e-05 0)
(0.100248757 2.98262415e-05 0)
(0.100240246 3.83546621e-05 0)
(0.100231049 4.58611449e-05 0)
(0.100221244 5.24439524e-05 0)
(0.100210916 5.81914338e-05 0)
(0.100200147 6.3183817e-05 0)
(0.100189011 6.74949661e-05 0)
(0.100177581 7.11920348e-05 0)
(0.100165921 7.43351784e-05 0)
(0.100154093 7.69780207e-05 0)
(0.100142152 7.91683362e-05 0)
(0.100130146 8.09486882e-05 0)
(0.10011812 8.23570768e-05 0)
(0.100106111 8.34275884e-05 0)
(0.100094154 8.41910003e-05 0)
(0.100082278 8.46753009e-05 0)
(0.100070507 8.49061059e-05 0)
(0.100058864 8.49069689e-05 0)
(0.100047368 8.46996166e-05 0)
(0.100036034 8.43041221e-05 0)
(0.100024877 8.37390293e-05 0)
(0.100013909 8.3021435e-05 0)
(0.10000314 8.21670432e-05 0)
(0.0999925793 8.11902059e-05 0)
(0.0999822343 8.01039604e-05 0)
(0.0999721116 7.89200738e-05 0)
(0.0999622169 7.76491001e-05 0)
(0.0999525547 7.6300451e-05 0)
(0.0999431288 7.48824813e-05 0)
(0.0999339421 7.34025827e-05 0)
(0.0999249968 7.18672796e-05 0)
(0.0999162945 7.02823189e-05 0)
(0.0999078364 6.86527448e-05 0)
(0.0998996231 6.69829489e-05 0)
(0.0998916554 6.52766905e-05 0)
(0.0998839332 6.35370543e-05 0)
(0.099876458 6.1766444e-05 0)
(0.0998692272 5.99660485e-05 0)
(0.0998622523 5.81372913e-05 0)
(0.0998554965 5.62733213e-05 0)
(0.0998490925 5.43947903e-05 0)
(0.0998425841 5.23858737e-05 0)
(0.0998376129 5.07063748e-05 0)
(0.0998288471 4.73272813e-05 0)
(0.100001628 -3.18454918e-05 0)
(0.10001545 -9.52501552e-05 0)
(0.100043522 -0.000145193569 0)
(0.100082644 -0.000169426264 0)
(0.100125903 -0.000162979457 0)
(0.100166619 -0.000126942501 0)
(0.100199467 -6.66233187e-05 0)
(0.100220448 9.01228682e-06 0)
(0.100226878 9.0204423e-05 0)
(0.100217998 0.000167852538 0)
(0.100195188 0.000233930734 0)
(0.100161118 0.000282888709 0)
(0.10011915 0.000311787586 0)
(0.100072936 0.000320046301 0)
(0.100026084 0.000308930983 0)
(0.0999819295 0.000280854058 0)
(0.0999434004 0.000238920658 0)
(0.0999129114 0.000187102448 0)
(0.0998921619 0.00013087163 0)
(0.0998817892 7.7587921e-05 0)
(0.0998810031 3.59290404e-05 0)
(0.0998873444 1.42168525e-05 0)
(0.0998965469 1.8175366e-05 0)
(0.0999031155 4.97439178e-05 0)
(0.0999016921 0.000106430406 0)
(0.0998880178 0.000181524295 0)
(0.0998593306 0.00026576434 0)
(0.0998146199 0.000349341163 0)
(0.0997546201 0.000423575619 0)
(0.0996815112 0.000481982775 0)
(0.099598453 0.000520676311 0)
(0.0995090955 0.000538258286 0)
(0.0994171642 0.000535429932 0)
(0.099326151 0.000514566311 0)
(0.0992390916 0.000479425212 0)
(0.0991583797 0.000435025323 0)
(0.0990855649 0.000387582472 0)
(0.0990211201 0.000344288835 0)
(0.0989642089 0.000312718458 0)
(0.0989125497 0.000299795345 0)
(0.0988625393 0.000310474205 0)
(0.0988097349 0.000346467705 0)
(0.09874961 0.000405472118 0)
(0.0986783773 0.000481281983 0)
(0.0985936743 0.000564917527 0)
(0.0984949608 0.000646541519 0)
(0.0983835225 0.000717642564 0)
(0.0982620687 0.000772822313 0)
(0.0981340312 0.000810631523 0)
(0.0980027749 0.000833235622 0)
(0.0978709526 0.000845117499 0)
(0.0977401744 0.000851356345 0)
(0.0976110337 0.000856113889 0)
(0.097483403 0.000861787914 0)
(0.0973568375 0.000868959702 0)
(0.0972309249 0.00087693655 0)
(0.0971054833 0.000884515743 0)
(0.0969805952 0.000890619234 0)
(0.0968565294 0.000894611273 0)
(0.0967336275 0.000896303382 0)
(0.0966122143 0.000895776708 0)
(0.096492557 0.000893175412 0)
(0.096374867 0.000888571625 0)
(0.0962593239 0.000881926272 0)
(0.0961460998 0.000873116007 0)
(0.0960353759 0.00086198099 0)
(0.0959273481 0.000848361344 0)
(0.0958222265 0.000832111898 0)
(0.0957202336 0.000813101179 0)
(0.0956216049 0.000791205394 0)
(0.0955265911 0.000766304687 0)
(0.095435461 0.000738283542 0)
(0.095348504 0.00070703403 0)
(0.0952660326 0.000672459859 0)
(0.0951883839 0.000634479788 0)
(0.095115921 0.000593029835 0)
(0.0950490352 0.000548064163 0)
(0.0949881459 0.000499554319 0)
(0.0949336994 0.00044748611 0)
(0.0948861639 0.000391855812 0)
(0.0948460164 0.000332667672 0)
(0.0948137378 0.000269972168 0)
(0.0947898387 0.000203920998 0)
(0.0947748552 0.000134763113 0)
(0.0947691237 6.27884435e-05 0)
(0.0947724724 -1.16954057e-05 0)
(0.0947856769 -8.89650408e-05 0)
(0.0948101258 -0.000168352033 0)
(0.09484632 -0.000249445024 0)
(0.0948945241 -0.000331998049 0)
(0.0949550157 -0.000415597417 0)
(0.0950280477 -0.000499712912 0)
(0.0951137599 -0.000583736178 0)
(0.0952121632 -0.000666976819 0)
(0.0953231443 -0.000748674977 0)
(0.0954464515 -0.000828018574 0)
(0.0955816792 -0.000904158615 0)
(0.0957282613 -0.000976228328 0)
(0.0958854687 -0.00104336686 0)
(0.0960524112 -0.00110474577 0)
(0.0962280451 -0.00115959697 0)
(0.096411187 -0.00120724005 0)
(0.0966005331 -0.0012471071 0)
(0.096794684 -0.0012787631 0)
(0.0969921736 -0.00130192068 0)
(0.0971915014 -0.00131644862 0)
(0.0973911661 -0.00132237393 0)
(0.0975896989 -0.00131987773 0)
(0.0977856947 -0.0013092855 0)
(0.0979778406 -0.00129105241 0)
(0.0981649391 -0.00126574484 0)
(0.0983459267 -0.001234019 0)
(0.0985198863 -0.00119659804 0)
(0.0986860546 -0.00115424878 0)
(0.0988438233 -0.00110775915 0)
(0.0989927368 -0.00105791733 0)
(0.0991324847 -0.00100549316 0)
(0.0992628919 -0.000951222507 0)
(0.0993839061 -0.000895794553 0)
(0.0994955837 -0.000839842236 0)
(0.0995980754 -0.000783935634 0)
(0.0996916115 -0.000728578107 0)
(0.099776488 -0.000674204826 0)
(0.099853053 -0.000621183364 0)
(0.099921695 -0.000569815892 0)
(0.0999828304 -0.000520342737 0)
(0.100036894 -0.000472947319 0)
(0.100084328 -0.000427761927 0)
(0.100125583 -0.00038487339 0)
(0.100161109 -0.000344328421 0)
(0.100191349 -0.000306139089 0)
(0.100216734 -0.000270290472 0)
(0.100237676 -0.000236748161 0)
(0.100254579 -0.000205460958 0)
(0.100267835 -0.00017636253 0)
(0.100277811 -0.000149372247 0)
(0.100284844 -0.000124395422 0)
(0.100289268 -0.000101334061 0)
(0.100291403 -8.00886015e-05 0)
(0.100291548 -6.05564134e-05 0)
(0.100289989 -4.26555551e-05 0)
(0.100286999 -2.63300052e-05 0)
(0.100282796 -1.15325674e-05 0)
(0.100277465 1.7895406e-06 0)
(0.100270939 1.38034909e-05 0)
(0.100263318 2.45886489e-05 0)
(0.100254838 3.42135239e-05 0)
(0.100245618 4.27529758e-05 0)
(0.100235745 5.02881108e-05 0)
(0.10022531 5.69018489e-05 0)
(0.100214398 6.26755807e-05 0)
(0.100203091 6.76856797e-05 0)
(0.100191464 7.20032282e-05 0)
(0.100179587 7.56940325e-05 0)
(0.100167523 7.88180436e-05 0)
(0.100155332 8.1429258e-05 0)
(0.100143065 8.35761183e-05 0)
(0.100130771 8.53020607e-05 0)
(0.100118488 8.66461181e-05 0)
(0.100106253 8.76435422e-05 0)
(0.100094097 8.83263858e-05 0)
(0.100082044 8.87239968e-05 0)
(0.100070118 8.88633954e-05 0)
(0.100058338 8.87695338e-05 0)
(0.10004672 8.84654672e-05 0)
(0.100035278 8.79724671e-05 0)
(0.100024025 8.73100979e-05 0)
(0.100012972 8.64962729e-05 0)
(0.100002127 8.55473034e-05 0)
(0.0999914989 8.44779493e-05 0)
(0.0999810949 8.33014773e-05 0)
(0.0999709208 8.20297329e-05 0)
(0.0999609814 8.06732297e-05 0)
(0.0999512808 7.92412522e-05 0)
(0.0999418222 7.77419741e-05 0)
(0.0999326077 7.61825808e-05 0)
(0.0999236389 7.45693895e-05 0)
(0.0999149167 7.29079555e-05 0)
(0.0999064417 7.1203157e-05 0)
(0.0998982136 6.94592461e-05 0)
(0.0998902325 6.76798678e-05 0)
(0.0998824975 6.58680151e-05 0)
(0.0998750091 6.40260488e-05 0)
(0.0998677638 6.21551498e-05 0)
(0.0998607717 6.02571231e-05 0)
(0.0998539958 5.83252412e-05 0)
(0.0998475663 5.63839037e-05 0)
(0.0998410445 5.4314294e-05 0)
(0.099836053 5.26038115e-05 0)
(0.0998274804 4.91830947e-05 0)
(0.100001504 -4.07313657e-05 0)
(0.100015188 -0.000122581578 0)
(0.100044105 -0.000188109032 0)
(0.1000855 -0.000220956721 0)
(0.100132205 -0.00021425462 0)
(0.100176789 -0.000169250513 0)
(0.100212898 -9.26893004e-05 0)
(0.100235605 4.67735805e-06 0)
(0.100242664 0.00011014658 0)
(0.10023358 0.000210659572 0)
(0.100209225 0.000296078624 0)
(0.100172471 0.000359504573 0)
(0.100127053 0.000397233434 0)
(0.100077025 0.000408514289 0)
(0.100026437 0.000394903395 0)
(0.0999790679 0.000359394103 0)
(0.099938259 0.000305860739 0)
(0.0999067667 0.000239284863 0)
(0.0998865088 0.000166570148 0)
(0.099878136 9.70714506e-05 0)
(0.0998805277 4.19301558e-05 0)
(0.0998904536 1.21225758e-05 0)
(0.0999035065 1.56528426e-05 0)
(0.0999147708 5.516557e-05 0)
(0.0999185004 0.00012696178 0)
(0.0999093003 0.000222257961 0)
(0.0998836383 0.000329262525 0)
(0.0998401966 0.000435479577 0)
(0.099779723 0.000529859879 0)
(0.0997046472 0.000604191932 0)
(0.0996185426 0.000653598948 0)
(0.0995255627 0.000676350183 0)
(0.0994299658 0.000673320478 0)
(0.0993357624 0.000647429745 0)
(0.0992464539 0.000603286655 0)
(0.0991648001 0.000547076499 0)
(0.0990925582 0.000486533733 0)
(0.0990301938 0.000430714964 0)
(0.0989766575 0.000389280298 0)
(0.0989293434 0.00037115873 0)
(0.0988842768 0.000382795778 0)
(0.0988365647 0.000426477243 0)
(0.0987811288 0.000499326461 0)
(0.0987136102 0.000593457223 0)
(0.098631207 0.000697441347 0)
(0.0985331915 0.000798784773 0)
(0.0984209428 0.000886709899 0)
(0.0982974823 0.000954403302 0)
(0.098166662 0.00100005259 0)
(0.0980322621 0.00102641364 0)
(0.0978972633 0.00103917334 0)
(0.0977634743 0.00104478147 0)
(0.0976315591 0.00104854047 0)
(0.0975013638 0.00105353019 0)
(0.0973723645 0.00106053071 0)
(0.0972440587 0.0010686985 0)
(0.0971161897 0.00107652868 0)
(0.0969887905 0.00108266077 0)
(0.0968621025 0.00108628803 0)
(0.0967364532 0.00108717153 0)
(0.0966121573 0.00108542012 0)
(0.0964894714 0.00108122976 0)
(0.0963685942 0.00107471041 0)
(0.0962496922 0.00106583301 0)
(0.0961329256 0.00105446079 0)
(0.0960184656 0.0010404077 0)
(0.0959065 0.00102348339 0)
(0.095797234 0.00100351178 0)
(0.0956908891 0.00098033061 0)
(0.0955877038 0.000953784338 0)
(0.0954879363 0.000923719529 0)
(0.0953918669 0.00088998536 0)
(0.0952998012 0.000852437521 0)
(0.0952120723 0.000810942848 0)
(0.0951290419 0.000765382884 0)
(0.095051101 0.00071565587 0)
(0.0949786701 0.000661677506 0)
(0.0949121973 0.000603380979 0)
(0.0948521562 0.000540716808 0)
(0.0947990412 0.000473653832 0)
(0.0947533602 0.000402182716 0)
(0.094715626 0.000326326081 0)
(0.0946863516 0.000246144202 0)
(0.0946660225 0.000161723413 0)
(0.094655246 7.31960666e-05 0)
(0.0946548723 -1.91169895e-05 0)
(0.0946655071 -0.000114428353 0)
(0.0946875667 -0.00021246375 0)
(0.0947216666 -0.000312915584 0)
(0.0947683844 -0.000415318279 0)
(0.0948281602 -0.000519079946 0)
(0.0949013321 -0.000623519256 0)
(0.0949881376 -0.000727861426 0)
(0.0950886878 -0.00083123078 0)
(0.0952029478 -0.000932662759 0)
(0.09533072 -0.00103112383 0)
(0.0954716265 -0.00112553382 0)
(0.0956250975 -0.00121479287 0)
(0.0957903651 -0.00129781232 0)
(0.0959664646 -0.00137354791 0)
(0.0961522425 -0.00144103373 0)
(0.096346373 -0.00149941553 0)
(0.0965473817 -0.00154798146 0)
(0.0967536761 -0.00158618829 0)
(0.0969635816 -0.00161368138 0)
(0.0971753817 -0.00163030684 0)
(0.0973873596 -0.00163611526 0)
(0.0975978401 -0.00163135671 0)
(0.0978052282 -0.00161646768 0)
(0.0980080437 -0.00159205101 0)
(0.0982049494 -0.00155885051 0)
(0.0983947724 -0.00151772196 0)
(0.0985765184 -0.00146960233 0)
(0.0987493778 -0.00141547896 0)
(0.0989127264 -0.00135636009 0)
(0.099066119 -0.00129324811 0)
(0.0992092795 -0.00122711599 0)
(0.0993420866 -0.00115888794 0)
(0.0994645569 -0.001089424 0)
(0.0995768279 -0.00101950881 0)
(0.0996791388 -0.000949844219 0)
(0.0997718129 -0.000881045324 0)
(0.0998552399 -0.000813639685 0)
(0.09992986 -0.000748069045 0)
(0.0999961493 -0.000684693066 0)
(0.100054607 -0.000623794484 0)
(0.100105747 -0.000565584942 0)
(0.100150085 -0.000510211249 0)
(0.100188136 -0.000457762516 0)
(0.100220403 -0.000408278734 0)
(0.100247373 -0.000361759672 0)
(0.10026952 -0.000318170284 0)
(0.100287295 -0.000277444658 0)
(0.100301129 -0.000239493543 0)
(0.100311428 -0.000204214559 0)
(0.100318583 -0.000171497379 0)
(0.100322961 -0.000141223536 0)
(0.100324895 -0.000113275665 0)
(0.100324688 -8.75586388e-05 0)
(0.100322583 -6.39974076e-05 0)
(0.100318747 -4.25069768e-05 0)
(0.100313316 -2.29868047e-05 0)
(0.10030644 -5.31935313e-06 0)
(0.100298442 1.05558994e-05 0)
(0.100289595 2.47048227e-05 0)
(0.100279964 3.73284916e-05 0)
(0.100269638 4.85478915e-05 0)
(0.100258724 5.84642496e-05 0)
(0.100247313 6.71831307e-05 0)
(0.100235483 7.48070757e-05 0)
(0.100223312 8.14332397e-05 0)
(0.100210868 8.71522059e-05 0)
(0.100198216 9.20476713e-05 0)
(0.100185413 9.61969433e-05 0)
(0.100172513 9.96710827e-05 0)
(0.100159562 0.000102534957 0)
(0.100146603 0.000104847508 0)
(0.100133674 0.000106662126 0)
(0.100120811 0.000108027073 0)
(0.100108042 0.000108985941 0)
(0.100095396 0.000109578136 0)
(0.100082895 0.00010983935 0)
(0.100070559 0.000109801998 0)
(0.100058407 0.000109495605 0)
(0.100046452 0.00010894712 0)
(0.100034706 0.00010818118 0)
(0.100023181 0.000107220321 0)
(0.100011883 0.00010608514 0)
(0.100000821 0.000104794433 0)
(0.0999899983 0.000103365304 0)
(0.0999794207 0.000101813268 0)
(0.0999690911 0.000100152342 0)
(0.0999590122 9.8395137e-05 0)
(0.0999491859 9.65529446e-05 0)
(0.0999396135 9.46358263e-05 0)
(0.0999302958 9.26526986e-05 0)
(0.0999212331 9.06114126e-05 0)
(0.0999124254 8.85188281e-05 0)
(0.0999038724 8.63808773e-05 0)
(0.0998955732 8.42026156e-05 0)
(0.0998875272 8.19882602e-05 0)
(0.0998797329 7.97411789e-05 0)
(0.0998721899 7.74639884e-05 0)
(0.0998648935 7.51579784e-05 0)
(0.0998578529 7.28254646e-05 0)
(0.0998510275 7.04586736e-05 0)
(0.099844549 6.8088453e-05 0)
(0.099837951 6.55706983e-05 0)
(0.0998329017 6.35005777e-05 0)
(0.0998239843 5.9358279e-05 0)
(0.100001551 -4.91587464e-05 0)
(0.100015455 -0.000148337515 0)
(0.100044577 -0.000228915947 0)
(0.100086031 -0.000271682908 0)
(0.100132718 -0.000268418344 0)
(0.100177464 -0.000220118136 0)
(0.100214379 -0.000134156498 0)
(0.100239064 -2.29318065e-05 0)
(0.100247609 9.81741938e-05 0)
(0.100238767 0.000214265459 0)
(0.100214669 0.000313422458 0)
(0.100178181 0.000387514707 0)
(0.100132895 0.00043221961 0)
(0.100082836 0.000446575215 0)
(0.100032049 0.000432215393 0)
(0.0999843244 0.000392414699 0)
(0.0999430323 0.000331488463 0)
(0.0999109643 0.000255074576 0)
(0.0998900983 0.000171088403 0)
(0.0998812247 9.03388869e-05 0)
(0.0998836679 2.57966473e-05 0)
(0.0998949288 -9.96422758e-06 0)
(0.0999102611 -7.36192749e-06 0)
(0.0999231912 3.68197019e-05 0)
(0.0999276082 0.000118773472 0)
(0.0999190164 0.000228760667 0)
(0.099894325 0.000353117212 0)
(0.0998521453 0.00047725147 0)
(0.099793058 0.000588195539 0)
(0.0997193281 0.000676229469 0)
(0.0996343897 0.000735507504 0)
(0.0995423074 0.000763867903 0)
(0.0994473025 0.000762202286 0)
(0.0993533861 0.00073378498 0)
(0.0992640829 0.000683840878 0)
(0.0991821949 0.000619414773 0)
(0.0991095639 0.000549361873 0)
(0.0990468164 0.000484099285 0)
(0.0989930927 0.000434792716 0)
(0.098945878 0.000411862685 0)
(0.0989011418 0.000422980194 0)
(0.0988538716 0.00047109043 0)
(0.0987988917 0.000553176785 0)
(0.0987317817 0.000660330818 0)
(0.0986496846 0.000779346325 0)
(0.0985517928 0.000895556875 0)
(0.0984393817 0.000996135463 0)
(0.0983153839 0.00107283981 0)
(0.0981836194 0.00112334937 0)
(0.0980479034 0.00115083864 0)
(0.0979112995 0.00116207043 0)
(0.0977757152 0.00116480333 0)
(0.0976419011 0.00116546977 0)
(0.0975097605 0.00116784177 0)
(0.0973787962 0.0011729045 0)
(0.0972485081 0.00117965686 0)
(0.0971186299 0.00118627702 0)
(0.0969891813 0.00119111067 0)
(0.0968603916 0.00119318072 0)
(0.0967325777 0.0011922123 0)
(0.0966060438 0.00118836618 0)
(0.0964810343 0.00118191747 0)
(0.0963577342 0.00117303906 0)
(0.0962362942 0.00116173269 0)
(0.0961168586 0.00114786485 0)
(0.0959995845 0.00113123807 0)
(0.0958846485 0.00111164677 0)
(0.0957722484 0.00108890083 0)
(0.0956626023 0.0010628247 0)
(0.0955559496 0.00103324793 0)
(0.0954525527 0.000999998615 0)
(0.0953527 0.00096290337 0)
(0.0952567075 0.000921791675 0)
(0.0951649205 0.000876501501 0)
(0.0950777134 0.00082688401 0)
(0.0949954902 0.000772806787 0)
(0.0949186841 0.000714156058 0)
(0.0948477574 0.000650838462 0)
(0.0947832004 0.000582782943 0)
(0.0947255304 0.00050994351 0)
(0.0946752887 0.000432303961 0)
(0.0946330396 0.00034988589 0)
(0.0945993706 0.000262760639 0)
(0.0945749016 0.000171062496 0)
(0.0945602258 7.50238912e-05 0)
(0.0945558892 -2.51221436e-05 0)
(0.0945625769 -0.000129207352 0)
(0.0945811089 -0.000236858491 0)
(0.0946122201 -0.000347625143 0)
(0.094656528 -0.000460995753 0)
(0.0947145816 -0.000576340119 0)
(0.0947868574 -0.00069289255 0)
(0.094873723 -0.000809759661 0)
(0.0949754074 -0.000925925682 0)
(0.0950919792 -0.00104026225 0)
(0.095223322 -0.00115154625 0)
(0.0953691117 -0.00125848446 0)
(0.0955287974 -0.00135974541 0)
(0.0957015906 -0.00145399805 0)
(0.095886462 -0.00153995528 0)
(0.0960821486 -0.00161642006 0)
(0.0962871713 -0.00168233068 0)
(0.0964998634 -0.00173680238 0)
(0.0967184089 -0.0017791624 0)
(0.0969408882 -0.00180897589 0)
(0.0971653297 -0.00182606123 0)
(0.097389763 -0.00183049386 0)
(0.0976122716 -0.0018225986 0)
(0.0978310411 -0.00180293149 0)
(0.098044402 -0.00177225268 0)
(0.0982508631 -0.00173149252 0)
(0.0984491365 -0.00168171321 0)
(0.0986381522 -0.00162406875 0)
(0.0988170634 -0.00155976523 0)
(0.0989852444 -0.00149002354 0)
(0.0991422801 -0.00141604611 0)
(0.0992879504 -0.00133898845 0)
(0.0994222112 -0.00125993634 0)
(0.099545172 -0.00117988851 0)
(0.0996570728 -0.00109974473 0)
(0.0997582612 -0.00102029895 0)
(0.0998491696 -0.000942236688 0)
(0.0999302953 -0.000866135992 0)
(0.100002182 -0.000792471286 0)
(0.100065401 -0.000721619328 0)
(0.100120543 -0.000653866789 0)
(0.100168199 -0.000589418965 0)
(0.100208954 -0.000528409287 0)
(0.100243382 -0.000470908874 0)
(0.100272036 -0.000416935516 0)
(0.100295448 -0.000366462184 0)
(0.100314123 -0.000319425568 0)
(0.100328535 -0.000275734588 0)
(0.100339132 -0.000235277977 0)
(0.100346331 -0.000197928821 0)
(0.100350514 -0.000163550367 0)
(0.100352029 -0.000132004531 0)
(0.100351183 -0.00010314848 0)
(0.100348245 -7.68328833e-05 0)
(0.100343503 -5.29062539e-05 0)
(0.100337274 -3.12117173e-05 0)
(0.100329866 -1.15923087e-05 0)
(0.100321456 6.10322715e-06 0)
(0.100312068 2.20697802e-05 0)
(0.100301793 3.63768215e-05 0)
(0.100290796 4.91196554e-05 0)
(0.100279196 6.041623e-05 0)
(0.100267094 7.03759793e-05 0)
(0.10025458 7.91045339e-05 0)
(0.100241733 8.6704506e-05 0)
(0.100228627 9.32738417e-05 0)
(0.100215325 9.89048022e-05 0)
(0.10020189 0.00010368331 0)
(0.100188375 0.000107688932 0)
(0.10017483 0.000110994987 0)
(0.1001613 0.000113668682 0)
(0.100147825 0.000115771425 0)
(0.100134438 0.000117359235 0)
(0.100121169 0.000118483155 0)