/*--------------------------------*- C++ -*----------------------------------*\
| =========                 |                                                 |
| \\      /  F ield         | OpenFOAM: The Open Source CFD Toolbox           |
|  \\    /   O peration     | Version:  v2012                                 |
|   \\  /    A nd           | Website:  www.openfoam.com                      |
|    \\/     M anipulation  |                                                 |
\*---------------------------------------------------------------------------*/
FoamFile
{
    version     2.0;
    format      ascii;
    class       volScalarField;
    location    "2.74";
    object      p;
}
// * * * * * * * * * * * * * * * * * * * * * * * * * * * * * * * * * * * * * //

dimensions      [0 2 -2 0 0 0 0];


internalField   nonuniform List<scalar> 
28416
(
0.020375924
0.0203734821
0.0203683365
0.0203605913
0.0203504063
0.0203378083
0.0203226548
0.0203056413
0.020286344
0.02026458
0.0202403462
0.0202135918
0.0201843132
0.020152545
0.0201183331
0.0200817305
0.0200427983
0.0200016052
0.0199582277
0.0199127499
0.0198652614
0.0198158502
0.0197645934
0.0197115664
0.0196568769
0.0196006287
0.0195428919
0.0194837465
0.0194232915
0.0193616352
0.0192988907
0.0192351761
0.0191706138
0.0191053278
0.0190394419
0.0189730779
0.0189063554
0.0188393916
0.0187723029
0.0187052048
0.0186382104
0.0185714273
0.018504956
0.0184388894
0.0183733134
0.0183083048
0.018243929
0.0181802373
0.0181172657
0.0180550348
0.0179935501
0.0179328024
0.0178727686
0.0178134118
0.0177546824
0.017696518
0.0176388448
0.0175815781
0.0175246236
0.0174678783
0.0174112325
0.0173545702
0.0172977713
0.0172407124
0.0171832685
0.0171253143
0.0170667255
0.0170073798
0.0169471587
0.0168859476
0.0168236375
0.0167601251
0.0166953135
0.0166291125
0.0165614388
0.0164922155
0.0164213718
0.0163488418
0.0162745607
0.0161984584
0.0161204539
0.016040511
0.0159586113
0.0158747588
0.0157889949
0.0157014001
0.0156118795
0.0155204997
0.015427072
0.0153316456
0.015234216
0.0151347381
0.0150331881
0.0149295532
0.0148238187
0.0147159709
0.0146059997
0.0144938978
0.0143796611
0.0142632903
0.0141447906
0.0140241732
0.0139014556
0.0137766622
0.0136498243
0.0135209807
0.0133901772
0.0132574666
0.013122908
0.0129865661
0.0128485104
0.0127088145
0.0125675546
0.0124248089
0.0122806564
0.0121351759
0.0119884453
0.0118405405
0.0116915351
0.0115414994
0.0113905005
0.0112386013
0.0110858608
0.0109323338
0.0107780709
0.0106231186
0.0104675193
0.0103113112
0.0101545286
0.00999720214
0.00983935989
0.00968102812
0.00952223141
0.00936299248
0.00920333221
0.00904326992
0.00888282409
0.00872201248
0.0085608519
0.00839935836
0.0082375476
0.00807543533
0.00791303976
0.00775038651
0.00758748982
0.00742433578
0.00726094724
0.00709732014
0.00693346434
0.00676938203
0.0066050749
0.00644054723
0.00627580465
0.00611085326
0.00594569932
0.00578034926
0.00561480964
0.00544908701
0.00528318788
0.00511711868
0.00495088579
0.00478449543
0.00461795377
0.00445126685
0.00428444064
0.00411748101
0.00395039374
0.00378318449
0.00361585883
0.00344842232
0.00328088038
0.00311323841
0.00294550176
0.00277767572
0.00260976549
0.0024417763
0.00227371325
0.0021055814
0.00193738579
0.00176913138
0.00160082306
0.00143246562
0.00126406386
0.00109562234
0.000927145795
0.000758637865
0.000590105041
0.000421541744
0.000252977243
8.42888236e-05
0.020383335
0.0203811639
0.0203762663
0.0203686105
0.0203584108
0.0203457627
0.020330646
0.020313333
0.020293433
0.0202711223
0.0202463635
0.0202191635
0.020189526
0.0201574635
0.0201230032
0.0200861831
0.0200470514
0.0200056641
0.0199620829
0.0199163737
0.0198686066
0.019818859
0.0197672238
0.0197137804
0.0196586154
0.0196018238
0.0195435009
0.0194837447
0.0194226587
0.0193603518
0.0192969372
0.0192325323
0.0191672589
0.0191012419
0.0190346093
0.0189674918
0.0189000225
0.0188323354
0.0187645628
0.018696833
0.0186292682
0.018561983
0.0184950824
0.0184286596
0.018362796
0.0182975618
0.0182330165
0.0181692089
0.0181061759
0.0180439416
0.0179825157
0.0179218929
0.0178620519
0.0178029558
0.0177445525
0.0176867753
0.0176295447
0.0175727695
0.0175163484
0.017460171
0.0174041197
0.0173480713
0.0172918979
0.017235469
0.0171786531
0.017121319
0.017063337
0.0170045805
0.0169449274
0.0168842602
0.0168224678
0.0167594456
0.0166950963
0.0166293296
0.0165620625
0.0164932194
0.0164227307
0.0163505325
0.0162765653
0.0162007736
0.0161231105
0.0160435531
0.0159620999
0.015878755
0.0157935116
0.0157063355
0.0156171102
0.0155259772
0.0154328909
0.0153377882
0.0152406654
0.015141505
0.0150402815
0.0149369745
0.0148315648
0.0147240339
0.0146143655
0.0145025459
0.0143885648
0.0142724164
0.0141541002
0.0140336221
0.0139109951
0.0137862404
0.0136593871
0.0135304734
0.0133995455
0.0132666581
0.0131318734
0.0129952604
0.0128568938
0.0127168526
0.0125752193
0.0124320785
0.0122875154
0.0121416149
0.0119944605
0.0118461332
0.0116967111
0.0115462685
0.0113948756
0.011242598
0.0110894967
0.0109356279
0.0107810434
0.0106257902
0.0104699108
0.0103134437
0.0101564241
0.00999888334
0.00984084996
0.00968234971
0.00952340624
0.00936404154
0.00920427556
0.009044126
0.00888360943
0.00872274155
0.00856153757
0.00840001242
0.00823818108
0.00807605869
0.00791365905
0.00775099101
0.00758805899
0.00742486326
0.00726142904
0.00709775907
0.00693385918
0.0067697347
0.00660538994
0.00644082937
0.00627605816
0.00611108196
0.00594590656
0.00578053793
0.00561498216
0.00544924538
0.00528333371
0.0051172533
0.00495101021
0.00478461048
0.00461806008
0.00445136491
0.00428453082
0.0041175636
0.00395046899
0.00378325259
0.00361591998
0.00344847667
0.0032809281
0.00311327964
0.00294553664
0.00277770437
0.00260978802
0.00244179279
0.0022737238
0.00210558608
0.00193738468
0.00176912456
0.00160081063
0.00143244772
0.00126404067
0.00109559416
0.000927113051
0.000758601259
0.000590065993
0.000421502443
0.000252944571
8.42683998e-05
0.0203927643
0.0203904474
0.0203854378
0.0203777411
0.0203675305
0.0203548922
0.0203398312
0.0203224447
0.0203025095
0.0202801078
0.0202552319
0.0202278742
0.020198043
0.0201657592
0.0201310533
0.020093964
0.0200545387
0.020012833
0.0199689097
0.0199228378
0.0198746911
0.0198245497
0.0197724924
0.0197185942
0.0196629612
0.0196056801
0.0195468388
0.0194865336
0.0194248684
0.0193619538
0.0192979069
0.0192328511
0.0191669156
0.0191002339
0.0190329429
0.0189651811
0.0188970858
0.0188287917
0.0187604296
0.0186921266
0.0186240061
0.0185561864
0.0184887795
0.0184218899
0.0183556121
0.0182900281
0.0182252057
0.0181611977
0.0180980424
0.0180357629
0.017974367
0.0179138468
0.0178541786
0.0177953224
0.0177372231
0.0176798105
0.0176230008
0.0175666975
0.0175107933
0.0174551713
0.0173997069
0.0173442693
0.0172887233
0.0172329312
0.0171767542
0.0171200542
0.0170626956
0.017004546
0.0169454785
0.0168853718
0.0168241116
0.016761591
0.0166977111
0.016632381
0.0165655179
0.0164970468
0.0164269004
0.0163550183
0.0162813467
0.0162058389
0.0161284566
0.0160491712
0.0159679619
0.0158848053
0.0157996838
0.0157125774
0.0156236721
0.0155327596
0.0154398372
0.0153449026
0.0152479418
0.0151489345
0.0150478588
0.0149446936
0.0148394183
0.014732012
0.0146224551
0.0145107305
0.0143968241
0.0142807261
0.0141624325
0.014041946
0.013919277
0.0137944449
0.0136674781
0.0135384148
0.0134073025
0.0132741981
0.0131391669
0.0130022816
0.0128636211
0.0127232693
0.0125813135
0.0124378429
0.0122929474
0.0121467161
0.0119992364
0.0118505925
0.0117008653
0.0115501314
0.0113984624
0.0112459252
0.0110925814
0.0109384875
0.0107836952
0.010628251
0.0104721973
0.0103155719
0.010158409
0.0100007391
0.00984258964
0.00968398565
0.00952494963
0.00936550175
0.00920566079
0.00904544448
0.00888486884
0.00872394851
0.00856269656
0.00840112579
0.00823924854
0.00807707665
0.00791462477
0.00775192911
0.007588968
0.00742575824
0.00726230435
0.00709861095
0.0069346858
0.00677053491
0.00660616348
0.00644157663
0.00627677976
0.00611177856
0.00594657885
0.00578118653
0.00561560762
0.00544984822
0.00528391441
0.0051178123
0.00495154798
0.00478512745
0.00461855665
0.00445184147
0.00428498771
0.00411800112
0.00395088739
0.00378365211
0.00361630081
0.00344883898
0.00328127206
0.00311360538
0.00294584431
0.00277799411
0.00261005997
0.00244204711
0.00227396063
0.00210580559
0.00193758705
0.00176930998
0.00160097932
0.00143259991
0.00126417665
0.00109571426
0.000927217688
0.000758690933
0.000590141157
0.00042156322
0.000252988528
8.42896718e-05
0.0204059003
0.0204036453
0.0203986754
0.0203909643
0.0203806868
0.0203679353
0.0203526885
0.0203348695
0.0203146674
0.0202919561
0.0202667618
0.0202390906
0.0202089473
0.0201763536
0.0201413377
0.0201039338
0.0200641832
0.0200221335
0.0199778372
0.0199313509
0.0198827355
0.0198320423
0.0197794978
0.0197251149
0.0196688774
0.0196109204
0.0195513594
0.0194902984
0.0194278466
0.0193641195
0.0192992382
0.0192333299
0.0191665274
0.0190989687
0.0190307956
0.0189621523
0.0188931841
0.0188240361
0.0187548505
0.0186857647
0.01861691
0.0185484121
0.0184803908
0.0184129566
0.0183462088
0.0182802337
0.0182151031
0.0181508742
0.0180875887
0.0180252728
0.0179639358
0.0179035701
0.0178441503
0.0177856336
0.0177279603
0.0176710544
0.0176148252
0.0175591682
0.0175039673
0.0174490962
0.0173944205
0.0173397995
0.0172850881
0.0172301391
0.0171748046
0.0171189382
0.0170623966
0.0170050411
0.0169467388
0.0168873642
0.0168267992
0.0167649347
0.0167016702
0.0166369146
0.0165705858
0.0165026106
0.0164329246
0.0163614713
0.0162882025
0.0162130774
0.0161360634
0.0160571356
0.0159762771
0.0158934763
0.0158087281
0.0157220404
0.0156333648
0.0155427246
0.0154500982
0.0153554637
0.015258803
0.0151600969
0.0150593229
0.0149564566
0.0148514725
0.0147443448
0.0146350476
0.0145235567
0.0144098509
0.0142939131
0.0141757326
0.0140553058
0.0139326383
0.0138077456
0.0136806542
0.013551402
0.0134200379
0.0132866221
0.0131512245
0.0130139237
0.0128748059
0.0127339624
0.0125914887
0.0124474821
0.0123020402
0.0121552596
0.0120072341
0.0118580542
0.0117078057
0.0115565691
0.0114044197
0.0112514265
0.0110976531
0.0109431571
0.0107879904
0.0106321999
0.0104758272
0.0103189095
0.0101614799
0.0100035678
0.00984519933
0.00968639786
0.0095271842
0.00936757712
0.00920759374
0.00904724983
0.00888655993
0.00872553765
0.00856419636
0.00840254864
0.00824060705
0.00807837896
0.00791585372
0.0077531088
0.00759009654
0.00742682938
0.00726332086
0.00709957665
0.0069356028
0.00677140542
0.00660699003
0.00644236195
0.00627752656
0.00611248947
0.00594725631
0.0057818328
0.00561622471
0.00545043785
0.005284478
0.00511835102
0.00495206275
0.00478561899
0.00461902555
0.00445228821
0.0042854127
0.00411840471
0.00395126992
0.0037840139
0.00361664217
0.00344916022
0.00328157346
0.00311388723
0.00294610687
0.00277823763
0.00261028467
0.0024422532
0.00227414831
0.00210597504
0.00193773844
0.0017694435
0.00160109515
0.00143269828
0.00126425783
0.00109577857
0.000927265557
0.000758722899
0.000590158127
0.000421566492
0.000252982652
8.42798261e-05
0.0204224254
0.0204201564
0.0204151606
0.0204074104
0.0203970807
0.0203842595
0.0203689191
0.0203510486
0.0203307141
0.0203078303
0.0202824187
0.0202544826
0.0202240481
0.0201911357
0.0201557713
0.0201179882
0.0200778276
0.0200353382
0.0199905762
0.0199436025
0.01989448
0.0198432834
0.0197899639
0.0197347446
0.0196777092
0.0196189408
0.0195585202
0.0194965566
0.0194331634
0.0193684572
0.0193025623
0.0192356107
0.0191677414
0.0190990991
0.0190298339
0.018960099
0.0188900491
0.0188198384
0.0187496206
0.0186795481
0.0186097691
0.0185404228
0.0184716369
0.018403527
0.0183361966
0.0182697365
0.018204224
0.0181397216
0.0180762755
0.0180139151
0.0179526517
0.0178924779
0.017833367
0.0177752729
0.0177181305
0.0176618567
0.0176063519
0.0175515016
0.0174971784
0.0174432441
0.0173895516
0.0173359476
0.0172822744
0.0172283722
0.0171740815
0.017119245
0.0170637091
0.0170073266
0.0169499569
0.0168914683
0.0168317381
0.0167706538
0.0167081131
0.0166440245
0.0165783068
0.016510889
0.0164417099
0.0163707175
0.0162978686
0.016223128
0.0161464687
0.0160678704
0.0159873195
0.0159048072
0.0158203298
0.0157338826
0.0156454645
0.0155550646
0.0154626698
0.0153682667
0.0152718393
0.0151733676
0.0150728277
0.0149701928
0.0148654334
0.0147585182
0.0146494149
0.0145380919
0.01442452
0.0143086744
0.0141905364
0.0140700958
0.0139473526
0.0138223185
0.013695018
0.013565489
0.0134337829
0.0132999638
0.0131641079
0.0130263012
0.0128866384
0.01274522
0.0126021508
0.0124575374
0.0123114862
0.0121641015
0.0120154845
0.0118657314
0.0117149328
0.0115631732
0.0114105304
0.0112570755
0.0111028726
0.0109479796
0.0107924481
0.0106363238
0.0104796475
0.0103224547
0.0101647769
0.0100066417
0.00984807366
0.0096890942
0.00952972253
0.00936997581
0.00920986966
0.00904941834
0.0088886352
0.00872753285
0.00856612278
0.00840441486
0.008242417
0.00808014179
0.00791761905
0.00775477591
0.00759169949
0.00742838031
0.00726482171
0.00710102938
0.00693700878
0.00677276551
0.00660830512
0.00644363301
0.00627875455
0.00611367527
0.00594840072
0.00578293656
0.00561728858
0.00545146257
0.00528546437
0.00511929983
0.00495297481
0.00478649509
0.00461986643
0.00445309455
0.0042861851
0.00411914371
0.00395197598
0.00378468741
0.00361728349
0.00344976965
0.00328215129
0.00311443373
0.0029466223
0.00277872224
0.00261073873
0.00244267698
0.00227454208
0.00210633911
0.00193807311
0.0017697491
0.00160137201
0.00143294676
0.0012644783
0.00109597144
0.000927431281
0.000758861962
0.000590270929
0.000421653149
0.000253041111
8.43051221e-05
0.0204423622
0.0204400792
0.0204350464
0.0204272292
0.0204167996
0.020403844
0.0203883391
0.0203702595
0.0203496059
0.0203264267
0.0203007091
0.0202724608
0.0202416857
0.0202084032
0.0201726389
0.0201344223
0.0200937892
0.0200507814
0.0200054462
0.019957841
0.0199080425
0.019856156
0.0198022039
0.0197461828
0.0196883012
0.0196286037
0.0195672066
0.0195042128
0.0194397327
0.0193738895
0.0193068144
0.0192386462
0.0191695319
0.0190996253
0.0190290865
0.0189580801
0.0188867741
0.0188153376
0.0187439359
0.0186727279
0.0186018658
0.0185314962
0.01846176
0.0183927897
0.0183247063
0.0182576141
0.0181916
0.0181267332
0.018063065
0.0180006279
0.0179394348
0.0178794773
0.0178207258
0.0177631291
0.017706615
0.0176510916
0.0175964486
0.0175425595
0.0174892833
0.0174364673
0.0173839492
0.0173315602
0.0172791271
0.0172264753
0.0171734309
0.0171198233
0.0170654873
0.0170102649
0.0169540069
0.0168965745
0.0168378395
0.0167776858
0.0167160092
0.0166527177
0.0165877312
0.0165209813
0.0164524104
0.0163819715
0.0163096271
0.0162353486
0.0161591153
0.0160809134
0.0160007354
0.0159185775
0.0158344389
0.0157483192
0.0156602169
0.0155701293
0.0154780497
0.0153839665
0.0152878638
0.0151897212
0.0150895134
0.0149872099
0.0148827755
0.0147761717
0.0146673575
0.0145562913
0.0144429332
0.0143272475
0.0142092052
0.0140887866
0.0139659841
0.0138408037
0.0137132672
0.0135834124
0.0134512937
0.0133169807
0.0131805574
0.0130421201
0.0129017744
0.0127596332
0.0126158136
0.0124704342
0.0123236127
0.0121754639
0.0120260979
0.0118756185
0.0117241226
0.0115716995
0.0114184301
0.0112643878
0.0111096379
0.0109542385
0.0107982405
0.0106416886
0.0104846217
0.0103270736
0.0101690736
0.010010647
0.00985181587
0.00969259937
0.00953301432
0.00937307554
0.0092127962
0.0090521881
0.00889126189
0.0087300274
0.00856849426
0.00840667322
0.00824457543
0.00808220945
0.00791957557
0.00775667684
0.00759353039
0.00743014248
0.00726651818
0.00710266278
0.00693858153
0.0067742798
0.00660976298
0.00644503642
0.0062801055
0.00611497568
0.00594965246
0.00578414133
0.00561844792
0.00545257779
0.00528653658
0.00512032997
0.00495396365
0.00478744331
0.00462077464
0.00445396331
0.00428701495
0.00411993518
0.00395272959
0.00378540368
0.00361796292
0.00345041275
0.00328275853
0.00311500557
0.00294715918
0.00277922456
0.00261120689
0.00244311131
0.00227494293
0.00210670677
0.00193840787
0.00177005125
0.00160164184
0.00143318458
0.00126468442
0.00109614622
0.000927575083
0.000758975185
0.000590354096
0.00042170689
0.000253068002
8.4308668e-05
0.0204657364
0.0204634401
0.0204583704
0.0204504926
0.0204399809
0.0204269208
0.0204112821
0.0203930389
0.0203721942
0.0203487638
0.0203227607
0.0202941858
0.0202630511
0.0202293735
0.0201931752
0.0201544843
0.0201133358
0.0200697719
0.0200238429
0.0199756001
0.0199250834
0.0198723367
0.0198174689
0.019760588
0.0197016405
0.0196408594
0.0195783156
0.019514111
0.019448365
0.0193812028
0.0193127592
0.0192431794
0.019172618
0.0191012385
0.0190292119
0.0189567144
0.0188839247
0.018811022
0.0187381868
0.0186655993
0.0185934349
0.0185218606
0.0184510319
0.0183810902
0.0183121619
0.01824436
0.0181777818
0.0181125071
0.0180485954
0.0179860848
0.017924991
0.0178653057
0.0178069967
0.0177500073
0.0176942571
0.0176396433
0.0175860426
0.017533313
0.0174812968
0.0174298233
0.0173787116
0.0173277736
0.0172768172
0.0172256494
0.0171740789
0.0171219189
0.0170689896
0.0170151203
0.0169601511
0.0169039346
0.0168463363
0.0167872358
0.0167265268
0.0166641173
0.016599929
0.0165338968
0.0164659681
0.0163961017
0.016324267
0.0162504427
0.0161746156
0.0160967797
0.0160169343
0.0159350828
0.0158512313
0.0157653867
0.0156775532
0.0155877337
0.0154959261
0.0154021233
0.0153063122
0.0152084729
0.0151085783
0.0150065939
0.0149024783
0.0147961842
0.0146876601
0.0145768519
0.0144637065
0.0143481742
0.0142302126
0.01410979
0.0139868887
0.0138615078
0.0137336652
0.0136033989
0.0134707669
0.0133358463
0.0131987316
0.0130595316
0.0129183666
0.0127753646
0.0126306582
0.0124843807
0.0123366637
0.012187634
0.012037412
0.0118861103
0.0117338322
0.0115806717
0.011426713
0.0112720311
0.0111166915
0.0109607518
0.0108042613
0.0106472627
0.0104897922
0.0103318808
0.0101735549
0.0100148366
0.00985574484
0.00969629595
0.00953650383
0.00937638071
0.00921593752
0.00905518422
0.00889413003
0.00873278349
0.00857115157
0.00840924029
0.00824705718
0.00808460102
0.00792188837
0.00775891953
0.007595705
0.00743225021
0.00726856048
0.00710464132
0.00694049796
0.00677613561
0.00661155955
0.00644677504
0.00628178733
0.00611660182
0.00595122389
0.00578565901
0.00561991275
0.0054539907
0.00528789847
0.0051216417
0.00495522608
0.00478865721
0.00462194073
0.00445508224
0.00428808731
0.00412096151
0.00395371036
0.00378633933
0.00361885384
0.00345125932
0.0032835611
0.00311576449
0.00294787479
0.0027798972
0.0026118369
0.00244369906
0.00227548877
0.00210721107
0.00193887102
0.00177047361
0.00160202381
0.00143352652
0.00126498671
0.00109640924
0.0009277992
0.000759160773
0.000590501451
0.000421816161
0.000253137887
8.43360767e-05
0.0204925785
0.0204902681
0.0204851553
0.0204772024
0.0204665855
0.0204533892
0.0204375806
0.020419129
0.0203980467
0.0203743508
0.0203480422
0.0203191251
0.020287608
0.0202535056
0.0202168372
0.0201776263
0.0201359024
0.0200917004
0.02004506
0.0199960279
0.0199446642
0.019891036
0.0198351913
0.0197771896
0.0197172122
0.0196552546
0.0195914377
0.0195258787
0.0194586996
0.0193900326
0.0193200209
0.0192488183
0.0191765893
0.0191035083
0.0190297584
0.0189555301
0.01888102
0.0188064282
0.0187319528
0.0186577862
0.0185841153
0.0185111204
0.0184389745
0.01836784
0.0182978661
0.0182291845
0.0181619061
0.0180961205
0.0180318951
0.017969274
0.017908276
0.017848893
0.0177910891
0.017734801
0.0176799384
0.0176263853
0.0175740027
0.0175226303
0.0174720904
0.0174221904
0.0173727267
0.0173234883
0.0172742602
0.0172248272
0.017174977
0.0171245037
0.0170732102
0.0170209109
0.0169674336
0.0169126208
0.0168563312
0.0167984396
0.0167388378
0.0166774339
0.0166141517
0.0165489304
0.016481723
0.0164124956
0.0163412255
0.0162679005
0.0161925169
0.0161150783
0.0160355936
0.0159540754
0.0158705384
0.0157849968
0.015697466
0.0156079521
0.0155164611
0.0154229911
0.0153275312
0.0152300621
0.0151305548
0.0150289702
0.0149252591
0.0148193638
0.0147112193
0.0146007559
0.0144879033
0.0143725936
0.014254767
0.0141343757
0.0140113884
0.0138857949
0.013757608
0.0136268657
0.0134936309
0.0133579904
0.0132200524
0.0130799424
0.0129377994
0.012793771
0.0126480092
0.0125006658
0.0123518892
0.012201821
0.012050594
0.0118983303
0.0117451408
0.0115911245
0.0114363687
0.0112809496
0.0111249326
0.0109683737
0.0108113202
0.0106538115
0.0104958807
0.010337555
0.0101788568
0.0100198048
0.00986041419
0.00970069766
0.00954066589
0.00938032786
0.00921969131
0.00905876281
0.00889754806
0.00873605267
0.00857428221
0.00841224106
0.00824994564
0.00808739108
0.00792458395
0.00776152643
0.00759822519
0.00743468735
0.00727091789
0.0071069217
0.00694270367
0.00677826876
0.006613622
0.00644876847
0.00628371332
0.00611846182
0.00595301927
0.00578739105
0.00562158264
0.00545559954
0.00528944728
0.00512313144
0.00495665763
0.00479003143
0.00462325843
0.00445634421
0.0042892943
0.00412211425
0.00395480957
0.00378738569
0.00361984802
0.00345220195
0.00328445282
0.00311660588
0.00294866641
0.00278063959
0.00261253055
0.00244434444
0.00227608632
0.00210776121
0.00193937414
0.00177093009
0.00160243401
0.00143389082
0.00126530548
0.00109668282
0.000928027964
0.000759345051
0.000590641618
0.000421912596
0.000253192154
8.43505177e-05
0.0205229184
0.020520593
0.020515435
0.0205074056
0.0204966854
0.0204833583
0.0204673881
0.0204487413
0.0204274244
0.0204034511
0.020376827
0.0203475521
0.0203156317
0.020281077
0.0202439033
0.0202041307
0.0201617849
0.0201168978
0.020069508
0.0200196613
0.0199674108
0.019912796
0.019855883
0.0197967448
0.0197354832
0.0196721758
0.0196069254
0.0195398434
0.0194710555
0.0194006986
0.0193289216
0.0192558867
0.0191817687
0.0191067549
0.0190310436
0.0189548417
0.0188783617
0.0188018192
0.0187254314
0.0186494153
0.0185739838
0.0184993413
0.0184256817
0.018353186
0.0182820192
0.0182123285
0.0181442417
0.0180778648
0.0180132781
0.017950534
0.0178896554
0.0178306343
0.017773431
0.017717974
0.0176641609
0.0176118601
0.0175609134
0.0175111386
0.0174623334
0.0174142789
0.0173667443
0.0173194906
0.0172722755
0.017224857
0.0171769979
0.0171284693
0.0170790537
0.0170285478
0.0169767648
0.0169235362
0.0168687124
0.0168121635
0.0167537793
0.0166934688
0.0166311595
0.0165667962
0.0165003395
0.0164317641
0.0163610577
0.0162882188
0.0162132548
0.0161361808
0.0160570172
0.0159757882
0.0158925197
0.0158072375
0.0157199642
0.0156307201
0.0155395168
0.0154463588
0.0153512405
0.0152541447
0.015155041
0.0150538855
0.0149506203
0.0148451749
0.0147374678
0.0146274098
0.0145149079
0.0143998712
0.0142822163
0.0141618741
0.0140387955
0.0139129572
0.0137843653
0.0136530575
0.0135191034
0.0133826027
0.0132436812
0.0131024865
0.0129591817
0.0128139395
0.0126669363
0.012518347
0.0123683402
0.0122170751
0.0120646986
0.0119113438
0.0117571292
0.0116021587
0.0114465221
0.0112902958
0.0111335438
0.0109763194
0.0108186662
0.0106606194
0.0105022073
0.0103434523
0.010184372
0.0100249802
0.00986528757
0.00970530243
0.0095450314
0.00938447986
0.00922365258
0.00906255414
0.00890118894
0.0087395606
0.00857767111
0.00841551009
0.00825309895
0.00809044227
0.00792753977
0.00776439499
0.00760101061
0.00743739163
0.00727354295
0.00710946928
0.00694517536
0.00678066599
0.00661594609
0.00645102063
0.00628589468
0.00612057346
0.00595506222
0.0057893663
0.00562349116
0.00545744221
0.00529122493
0.00512484488
0.00495830759
0.00479161862
0.00462478351
0.00445780781
0.00429069704
0.0041234567
0.00395609228
0.00378860921
0.00362101287
0.00345330865
0.00328550184
0.00311759772
0.00294960154
0.00278151848
0.00261335367
0.00244511227
0.00227679931
0.00210841982
0.00193997883
0.00177148129
0.00160293215
0.0014343363
0.00126569869
0.00109702412
0.000928317688
0.000759583508
0.00059082904
0.000422049135
0.000253276946
8.43817167e-05
0.0205567889
0.0205544491
0.0205492454
0.020541138
0.0205303113
0.0205168487
0.0205007108
0.020481861
0.0204603042
0.0204360521
0.0204091059
0.020379463
0.0203471253
0.0203121002
0.0202743989
0.0202340366
0.0201910339
0.0201454173
0.0200972191
0.020046477
0.0199932335
0.0199375413
0.0198794596
0.0198190573
0.0197564176
0.019691626
0.0196247834
0.0195560042
0.0194854161
0.0194131612
0.0193393958
0.0192642913
0.0191880344
0.019110826
0.0190328797
0.0189544204
0.0188756818
0.0187969033
0.0187183265
0.0186401906
0.0185627302
0.0184861741
0.0184107418
0.0183366403
0.0182640606
0.0181931743
0.0181241298
0.0180570493
0.0179920264
0.0179291237
0.0178683698
0.0178097578
0.0177532438
0.0176987474
0.0176461519
0.0175953072
0.0175460319
0.0174981175
0.0174513319
0.0174054246
0.0173601317
0.0173151808
0.0172702964
0.0172252048
0.0171796389
0.0171333426
0.0170860743
0.0170376104
0.0169877477
0.0169363048
0.0168831236
0.0168280694
0.0167710308
0.0167119186
0.0166506653
0.0165872225
0.0165215603
0.0164536645
0.0163835347
0.0163111825
0.0162366292
0.0161599039
0.0160810411
0.0160000789
0.0159170572
0.0158320149
0.0157449881
0.0156560076
0.015565096
0.0154722674
0.0153775225
0.0152808471
0.01518221
0.0150815624
0.0149788367
0.0148739473
0.0147667922
0.0146572574
0.0145452214
0.0144305624
0.0143131662
0.0141929349
0.0140697954
0.0139437065
0.0138146651
0.0136827085
0.0135479153
0.0134104021
0.0132703188
0.0131278419
0.0129831658
0.0128364954
0.0126880381
0.0125379972
0.0123865659
0.012233924
0.0120802345
0.0119256423
0.0117702738
0.0116142372
0.0114576237
0.0113005084
0.0111429527
0.0109850055
0.0108267049
0.0106680806
0.0105091546
0.0103499433
0.0101904583
0.0100307076
0.00987069658
0.00971042882
0.00954990643
0.0093891307
0.00922810221
0.00906682112
0.00890528842
0.00874350707
0.0085814889
0.00841920381
0.00825666985
0.0080938974
0.00793088445
0.00776763488
0.00760415152
0.00744043771
0.0072764974
0.00711233471
0.00694795393
0.00678335954
0.00661855623
0.00645354882
0.00628834223
0.00612294156
0.00595735198
0.00579157874
0.00562562722
0.00545950283
0.00529321103
0.00512675735
0.00496014733
0.0047933865
0.0046264804
0.00445943453
0.00429225441
0.00412494551
0.0039575133
0.0037899632
0.00362230055
0.00345453073
0.00328665901
0.00311869064
0.00295063086
0.0027824848
0.00261425759
0.00244595432
0.00227758003
0.0021091397
0.00194063834
0.00177208088
0.00160347225
0.00143481732
0.00126612102
0.00109738813
0.00092862373
0.0007598319
0.000591020087
0.000422183131
0.000253354864
8.44053293e-05
0.0205942233
0.0205918699
0.020586621
0.0205784361
0.0205675041
0.020553908
0.0205376046
0.0205185541
0.0204967582
0.0204722256
0.0204449542
0.0204149373
0.0203821723
0.0203466617
0.0203084114
0.0202674309
0.0202237351
0.0201773445
0.0201282854
0.0200765898
0.0200222967
0.0199654539
0.0199061125
0.0198443352
0.0197801979
0.0197137835
0.0196451966
0.019574551
0.0195019765
0.0194276194
0.0193516431
0.0192742286
0.0191955749
0.0191158981
0.0190354304
0.0189544173
0.0188731152
0.0187917877
0.0187107026
0.0186301284
0.0185503307
0.0184715682
0.01839409
0.0183181324
0.0182439149
0.0181716362
0.0181014697
0.0180335604
0.0179680205
0.0179049253
0.0178443111
0.0177861718
0.017730459
0.0176770809
0.0176259044
0.0175767567
0.0175294291
0.017483681
0.017439245
0.0173958324
0.0173531394
0.0173108537
0.0172686599
0.0172262464
0.0171833106
0.0171395642
0.0170947375
0.0170485832
0.017000879
0.0169514295
0.0169000674
0.0168466532
0.0167910751
0.0167332474
0.0166731093
0.0166106224
0.0165457683
0.0164785466
0.0164089719
0.0163370716
0.0162628832
0.0161864523
0.0161078301
0.0160270714
0.0159442323
0.015859368
0.0157725306
0.0156837675
0.0155931136
0.0155005943
0.0154062199
0.0153099823
0.0152118519
0.0151117756
0.0150096755
0.0149054482
0.0147989673
0.0146900872
0.0145786497
0.0144644926
0.0143474605
0.0142274165
0.0141042545
0.013977909
0.0138483639
0.0137156559
0.0135798756
0.0134411629
0.0132996998
0.013155701
0.0130094023
0.0128610501
0.0127108908
0.0125591627
0.0124060891
0.0122518733
0.0120966965
0.0119407159
0.0117840652
0.0116268559
0.0114691785
0.0113111051
0.0111526919
0.010993981
0.0108350036
0.0106757811
0.010516328
0.0103566527
0.0101967596
0.0100366499
0.00987632242
0.00971577499
0.00955500443
0.00939400748
0.00923278123
0.00907132277
0.00890962914
0.00874769447
0.00858551429
0.00842312133
0.00826048046
0.00809760224
0.00793448771
0.00777113918
0.00760755956
0.00744375184
0.00727971955
0.00711546651
0.00695099675
0.00678631457
0.00662142453
0.00645633131
0.00629103979
0.00612555503
0.00595988217
0.00579402647
0.0056279933
0.00546178807
0.0052954162
0.00512888321
0.00496219461
0.00479535594
0.0046283727
0.00446125042
0.00429399458
0.00412661067
0.00395910416
0.00379148042
0.00362374482
0.0034559027
0.00328795935
0.00311991996
0.00295178978
0.00278357394
0.00261527754
0.00244690566
0.00227846332
0.0021099555
0.00194138717
0.00177276326
0.00160408865
0.00143536819
0.00126660676
0.00109780913
0.000928980312
0.000760124364
0.000591248656
0.000422347987
0.000253455493
8.44408478e-05
0.0206352546
0.0206328887
0.0206275968
0.0206193371
0.0206083035
0.0205945781
0.0205781139
0.0205588671
0.0205368367
0.0205120279
0.0204844339
0.0204540431
0.0204208478
0.020384845
0.0203460345
0.0203044194
0.0202600079
0.0202128134
0.0201628547
0.0201101561
0.0200547496
0.0199966764
0.0199359825
0.0198727224
0.0198069653
0.0197387882
0.0196682971
0.0195956056
0.0195208443
0.0194441634
0.0193657333
0.0192857452
0.0192044111
0.0191219637
0.0190386549
0.0189547532
0.0188705408
0.0187863104
0.0187023609
0.018618994
0.0185365093
0.0184552011
0.0183753545
0.0182972412
0.0182211158
0.0181472101
0.0180757288
0.0180068434
0.0179406881
0.0178773545
0.0178168883
0.0177592862
0.0177044947
0.0176524098
0.0176028785
0.0175557015
0.017510637
0.017467406
0.0174256981
0.0173851787
0.0173454961
0.0173062892
0.0172671952
0.017227857
0.0171879297
0.0171470872
0.0171050269
0.0170614743
0.0170161857
0.0169689504
0.0169195916
0.0168679659
0.0168139627
0.016757502
0.0166985323
0.0166370278
0.0165729853
0.0165064211
0.0164373678
0.0163658717
0.0162919897
0.0162157868
0.0161373339
0.0160567052
0.0159739762
0.0158892214
0.0158025107
0.0157139155
0.0156234813
0.015531252
0.0154372523
0.0153414832
0.0152439189
0.0151445041
0.01504315
0.0149397336
0.014834099
0.0147260612
0.0146154145
0.0145019434
0.0143854371
0.0142657057
0.0141425972
0.0140160126
0.0138859176
0.0137523482
0.0136154116
0.0134752797
0.0133321784
0.0131863738
0.0130381563
0.0128878258
0.0127356784