/*--------------------------------*- C++ -*----------------------------------*\
| =========                 |                                                 |
| \\      /  F ield         | OpenFOAM: The Open Source CFD Toolbox           |
|  \\    /   O peration     | Version:  v2012                                 |
|   \\  /    A nd           | Website:  www.openfoam.com                      |
|    \\/     M anipulation  |                                                 |
\*---------------------------------------------------------------------------*/
FoamFile
{
    version     2.0;
    format      ascii;
    class       surfaceScalarField;
    location    "2.74";
    object      phiHbyA;
}
// * * * * * * * * * * * * * * * * * * * * * * * * * * * * * * * * * * * * * //

dimensions      [0 3 -1 0 0 0 0];
oriented        oriented;


internalField   nonuniform List<scalar> 
56481
(
6.66724849e-07
-1.18013496e-10
6.66873754e-07
-3.41952543e-10
6.67091095e-07
-5.1213983e-10
6.67342161e-07
-5.80906237e-10
6.67587671e-07
-5.28106445e-10
6.67788846e-07
-3.59364396e-10
6.67912368e-07
-9.30859051e-11
6.67976567e-07
2.24915715e-10
6.67963415e-07
5.65073433e-10
6.6787e-07
8.86939603e-10
6.67705106e-07
1.15876825e-09
6.67485434e-07
1.35758343e-09
6.67231265e-07
1.47087663e-09
6.66963391e-07
1.49643577e-09
6.66701275e-07
1.44012998e-09
6.6646204e-07
1.31293791e-09
6.66259869e-07
1.12895397e-09
6.66105135e-07
9.05945158e-10
6.66002819e-07
6.67734084e-10
6.65950618e-07
4.4545709e-10
6.65937758e-07
2.74897066e-10
6.65944944e-07
1.89905519e-10
6.65946098e-07
2.13382972e-10
6.65910525e-07
3.50397971e-10
6.65811105e-07
5.88038346e-10
6.65630396e-07
8.97543724e-10
6.65359886e-07
1.24073741e-09
6.65001142e-07
1.57777769e-09
6.64564161e-07
1.87383308e-09
6.64064724e-07
2.10303731e-09
6.63521592e-07
2.24986703e-09
6.62954181e-07
2.30877083e-09
6.62380964e-07
2.28289656e-09
6.6181849e-07
2.18269373e-09
6.61280615e-07
2.02485773e-09
6.60777538e-07
1.83164899e-09
6.60314437e-07
1.6302086e-09
6.59889844e-07
1.4511506e-09
6.59494334e-07
1.32577694e-09
6.59110503e-07
1.28176773e-09
6.58715101e-07
1.33795829e-09
6.58283254e-07
1.49958412e-09
6.57793463e-07
1.75571213e-09
6.57231718e-07
2.08019117e-09
6.56593676e-07
2.4364719e-09
6.55884601e-07
2.78532918e-09
6.55117296e-07
3.09334561e-09
6.54308697e-07
3.33959194e-09
6.53476068e-07
3.51850733e-09
6.52633823e-07
3.63832248e-09
6.5179171e-07
3.71595936e-09
6.50954601e-07
3.77049688e-09
6.50123615e-07
3.81754451e-09
6.4929788e-07
3.8661603e-09
6.48476235e-07
3.91870097e-09
6.47658325e-07
3.97282186e-09
6.46844954e-07
4.02424684e-09
6.46037861e-07
4.06905077e-09
6.45239236e-07
4.10479741e-09
6.44451274e-07
4.13056737e-09
6.43675917e-07
4.14634563e-09
6.4291481e-07
4.15231268e-09
6.42169372e-07
4.14838644e-09
6.4144091e-07
4.13409903e-09
6.4073071e-07
4.10869673e-09
6.40040076e-07
4.07131225e-09
6.39370346e-07
4.02109729e-09
6.38722891e-07
3.95727166e-09
6.38099121e-07
3.87913213e-09
6.37500492e-07
3.78603785e-09
6.36928532e-07
3.67739733e-09
6.36384857e-07
3.55268162e-09
6.35871187e-07
3.41144045e-09
6.35389369e-07
3.25331584e-09
6.34941392e-07
3.07806456e-09
6.34529419e-07
2.88557005e-09
6.34155823e-07
2.67584376e-09
6.33823273e-07
2.44902319e-09
6.33534949e-07
2.20531741e-09
6.33295148e-07
1.94483863e-09
6.33107059e-07
1.66691242e-09
6.32972911e-07
1.37112403e-09
6.32894097e-07
1.05844397e-09
6.32870748e-07
7.298805e-10
6.3290032e-07
3.87875024e-10
6.32972816e-07
3.92425579e-11
6.33119632e-07
-3.27048733e-10
6.33343221e-07
-6.92198759e-10
6.33643092e-07
-1.06386926e-09
6.34018886e-07
-1.4413621e-09
6.34470393e-07
-1.82256247e-09
6.34997439e-07
-2.2054277e-09
6.35599411e-07
-2.58736117e-09
6.36275098e-07
-2.96528957e-09
6.37022623e-07
-3.33589794e-09
6.37839365e-07
-3.69568552e-09
6.38721915e-07
-4.04101136e-09
6.39666081e-07
-4.36817753e-09
6.40666924e-07
-4.67352193e-09
6.4171881e-07
-4.9535325e-09
6.42815477e-07
-5.20496277e-09
6.43950115e-07
-5.42493546e-09
6.45115459e-07
-5.61104934e-09
6.46303899e-07
-5.76145262e-09
6.47507604e-07
-5.87490395e-09
6.48718656e-07
-5.95079207e-09
6.49929198e-07
-5.98915768e-09
6.51131578e-07
-5.99066268e-09
6.52318483e-07
-5.95656559e-09
6.53483062e-07
-5.88866165e-09
6.54619032e-07
-5.78922017e-09
6.55720754e-07
-5.66089414e-09
6.56783291e-07
-5.50664199e-09
6.57802446e-07
-5.32963644e-09
6.58774767e-07
-5.13316637e-09
6.59697546e-07
-4.92056047e-09
6.60568794e-07
-4.69510921e-09
6.613872e-07
-4.45998965e-09
6.62152081e-07
-4.2182166e-09
6.62863328e-07
-3.97259655e-09
6.63521339e-07
-3.72568705e-09
6.64126962e-07
-3.47978117e-09
6.64681429e-07
-3.23689064e-09
6.65186294e-07
-2.99874516e-09
6.65643368e-07
-2.76679045e-09
6.66054662e-07
-2.54220293e-09
6.66422332e-07
-2.32589995e-09
6.66748658e-07
-2.11855118e-09
6.67036032e-07
-1.92060802e-09
6.67286932e-07
-1.73233374e-09
6.67503866e-07
-1.55382869e-09
6.6768933e-07
-1.38505891e-09
6.67845811e-07
-1.22588381e-09
6.679758e-07
-1.07607987e-09
6.6808176e-07
-9.35368077e-10
6.68166081e-07
-8.03452163e-10
6.68231071e-07
-6.80050129e-10
6.68278967e-07
-5.64904783e-10
6.68311915e-07
-4.5778953e-10
6.68331915e-07
-3.58544543e-10
6.68340751e-07
-2.67104788e-10
6.68339814e-07
-1.83419681e-10
6.68329761e-07
-1.072874e-10
6.68310168e-07
-3.82596535e-11
6.68280969e-07
2.31877494e-11
6.68245492e-07
7.91394449e-11
6.68203499e-07
1.29101846e-10
6.68155503e-07
1.73243123e-10
6.68102065e-07
2.12146408e-10
6.68043816e-07
2.46330592e-10
6.67981408e-07
2.76255525e-10
6.67915473e-07
3.02346318e-10
6.67846602e-07
3.2499095e-10
6.67775349e-07
3.44536851e-10
6.6770222e-07
3.61291635e-10
6.67627674e-07
3.75525693e-10
6.67552124e-07
3.87476392e-10
6.67475932e-07
3.97352057e-10
6.67399414e-07
4.05335867e-10
6.67322839e-07
4.11591267e-10
6.67246442e-07
4.16265946e-10
6.67170419e-07
4.19495769e-10
6.67094941e-07
4.21406399e-10
6.67020155e-07
4.22115791e-10
6.66946187e-07
4.21733907e-10
6.6687315e-07
4.20363897e-10
6.66801144e-07
4.18101849e-10
6.66730256e-07
4.15037231e-10
6.66660567e-07
4.11252091e-10
6.66592146e-07
4.06821617e-10
6.66525057e-07
4.01814077e-10
6.66459354e-07
3.96290265e-10
6.66395084e-07
3.90304367e-10
6.66332287e-07
3.83904366e-10
6.66270997e-07
3.77132018e-10
6.66211238e-07
3.70024156e-10
6.66153031e-07
3.62613414e-10
6.66096393e-07
3.54928342e-10
6.66041333e-07
3.46994623e-10
6.65987861e-07
3.38835063e-10
6.65935986e-07
3.30470097e-10
6.65885716e-07
3.21916973e-10
6.65837062e-07
3.13190086e-10
6.6579004e-07
3.04298251e-10
6.65744673e-07
2.95250252e-10
6.65701001e-07
2.860142e-10
6.65659057e-07
2.76682289e-10
6.6561904e-07
2.6667335e-10
6.65580735e-07
2.58144411e-10
2.40902591e-10
6.66709676e-07
-1.61583985e-10
6.66854587e-07
-4.88020948e-10
6.67084328e-07
-7.43269565e-10
6.67364285e-07
-8.62163338e-10
6.67652163e-07
-8.17210571e-10
6.67906134e-07
-6.14541284e-10
6.68095289e-07
-2.83227915e-10
6.68183932e-07
1.3511672e-10
6.68168494e-07
5.798165e-10
6.68053458e-07
1.0015142e-09
6.67853497e-07
1.35850729e-09
6.67589524e-07
1.6215033e-09
6.67285698e-07
1.77475271e-09
6.66966939e-07
1.81530916e-09
6.6665689e-07
1.75032221e-09
6.66376769e-07
1.59321007e-09
6.66144682e-07
1.36118111e-09
6.65974602e-07
1.07614004e-09
6.65874359e-07
7.68063539e-10
6.65842817e-07
4.77062348e-10
6.65867467e-07
2.50312515e-10
6.65924626e-07
1.32849637e-10
6.65982627e-07
1.55520359e-10
6.66005338e-07
3.27869155e-10
6.65958931e-07
6.34704325e-10
6.6581787e-07
1.03896778e-09
6.65568521e-07
1.49056258e-09
6.65210237e-07
1.93665154e-09
6.64754008e-07
2.33076571e-09
6.64219386e-07
2.63847297e-09
6.63630818e-07
2.839361e-09
6.63014309e-07
2.92632006e-09
6.62394924e-07
2.90344481e-09
6.61795084e-07
2.78383372e-09
6.61233269e-07
2.58812235e-09
6.60722682e-07
2.3438505e-09
6.60269652e-07
2.0850242e-09
6.59872047e-07
1.85070988e-09
6.59518318e-07
1.68161078e-09
6.59187868e-07
1.61445037e-09
6.58853094e-07
1.67506177e-09
6.58483181e-07
1.87188751e-09
6.58049278e-07
2.19203131e-09
6.57529999e-07
2.60188638e-09
6.56915643e-07
3.05322355e-09
6.56209756e-07
3.49358586e-09
6.55427467e-07
3.87797983e-09
6.54591173e-07
4.1782107e-09
6.53724969e-07
4.38701988e-09
6.52849528e-07
4.51605485e-09
6.51978849e-07
4.58890872e-09
6.51119492e-07
4.63209549e-09
6.50272014e-07
4.66722498e-09
6.49433627e-07
4.70669758e-09
6.48600908e-07
4.75350739e-09
6.47771658e-07
4.80408476e-09
6.46945597e-07
4.85223896e-09
6.46124081e-07
4.89240993e-09
6.45309346e-07
4.92128159e-09
6.44503768e-07
4.93779786e-09
6.43709414e-07
4.94225437e-09
6.4292793e-07
4.93525156e-09
6.42160657e-07
4.91701538e-09
6.41408807e-07
4.88720974e-09
6.40673593e-07
4.84507599e-09
6.39956306e-07
4.78967498e-09
6.39258316e-07
4.72007675e-09
6.38581066e-07
4.63542657e-09
6.37926075e-07
4.53494986e-09
6.37294938e-07
4.41792577e-09
6.3668935e-07
4.28366464e-09
6.36111124e-07
4.13151953e-09
6.35562208e-07
3.9609041e-09
6.35044701e-07
3.77130794e-09
6.34560871e-07
3.56232094e-09
6.34113166e-07
3.33364317e-09
6.33704241e-07
3.08508112e-09
6.33336979e-07
2.81654324e-09
6.33014492e-07
2.52800884e-09
6.32739991e-07
2.21949398e-09
6.32516014e-07
1.89099105e-09
6.32344463e-07
1.54270998e-09
6.32227405e-07
1.17542466e-09
6.32167788e-07
7.89230202e-10
6.32170861e-07
3.84279499e-10
6.32248435e-07
-3.91421952e-11
6.32388091e-07
-4.67393603e-10
6.32602327e-07
-9.07173216e-10
6.32893213e-07
-1.35564355e-09
6.33262922e-07
-1.81205172e-09
6.33712959e-07
-2.27367672e-09
6.34243872e-07
-2.73753163e-09
6.34855568e-07
-3.20036733e-09
6.35547284e-07
-3.658436e-09
6.36317443e-07
-4.10761113e-09
6.37163585e-07
-4.54350429e-09
6.38082326e-07
-4.96154962e-09
6.39069345e-07
-5.3571102e-09
6.40119401e-07
-5.72559845e-09
6.41226368e-07
-6.06262045e-09
6.42383315e-07
-6.36411785e-09
6.43582592e-07
-6.62649535e-09
6.44815954e-07
-6.84675534e-09
6.46074709e-07
-7.02259446e-09
6.47349876e-07
-7.15248667e-09
6.48632374e-07
-7.23571501e-09
6.49913201e-07
-7.27240263e-09
6.5118362e-07
-7.26347529e-09
6.52435327e-07
-7.21062637e-09
6.53660604e-07
-7.11623522e-09
6.54852436e-07
-6.98327959e-09
6.56004612e-07
-6.81521363e-09
6.5711178e-07
-6.61586085e-09
6.58169489e-07
-6.38929277e-09
6.59174185e-07
-6.13970124e-09
6.601232e-07
-5.87129918e-09
6.61014707e-07
-5.58822158e-09
6.61847665e-07
-5.29443242e-09
6.62621749e-07
-4.9936653e-09
6.63337277e-07
-4.68936909e-09
6.63995125e-07
-4.38466174e-09
6.64596647e-07
-4.08231474e-09
6.65143592e-07
-3.78473721e-09
6.65638033e-07
-3.49398074e-09
6.66082292e-07
-3.21174362e-09
6.66478886e-07
-2.93939473e-09
6.66830469e-07
-2.67799094e-09
6.67139784e-07
-2.42828969e-09
6.67409613e-07
-2.19078258e-09
6.67642751e-07
-1.96574678e-09
6.67841983e-07
-1.7532738e-09
6.68010062e-07
-1.55329515e-09
6.68149667e-07
-1.36559791e-09
6.68263362e-07
-1.18984393e-09
6.68353589e-07
-1.02563385e-09
6.68422703e-07
-8.72580015e-10
6.68472942e-07
-7.30285372e-10
6.6850638e-07
-5.98323805e-10
6.68524877e-07
-4.7625964e-10
6.68530042e-07
-3.63678933e-10
6.68523216e-07
-2.60251426e-10
6.68505546e-07
-1.65734664e-10
6.68478191e-07
-7.99376741e-11
6.68442355e-07
-2.43294214e-12
6.68399541e-07
6.59954226e-11
6.68350778e-07
1.27932196e-10
6.68296649e-07
1.83277185e-10
6.68237622e-07
2.32332069e-10
6.68174275e-07
2.75571051e-10
6.68107173e-07
3.13520985e-10
6.68036858e-07
3.46670429e-10
6.67963845e-07
3.75465861e-10
6.67888627e-07
4.00321529e-10
6.67811662e-07
4.21618427e-10
6.67733373e-07
4.39700924e-10
6.67654143e-07
4.54876965e-10
6.6757432e-07
4.67421633e-10
6.67494214e-07
4.77580546e-10
6.67414098e-07
4.85572873e-10
6.67334213e-07
4.91596045e-10
6.67254768e-07
4.958289e-10
6.67175945e-07
4.98435255e-10
6.67097899e-07
4.99565305e-10
6.67020768e-07
4.99358534e-10
6.66944668e-07
4.97943512e-10
6.66869699e-07
4.9543955e-10
6.66795948e-07
4.91956654e-10
6.66723491e-07
4.87596325e-10
6.66652391e-07
4.8245093e-10
6.66582705e-07
4.76604673e-10
6.66514479e-07
4.70133823e-10
6.66447755e-07
4.63106299e-10
6.66382565e-07
4.55582843e-10
6.66318937e-07
4.47617511e-10
6.66256895e-07
4.39257584e-10
6.66196454e-07
4.30544928e-10
6.66137629e-07
4.21516625e-10
6.66080427e-07
4.12204896e-10
6.66024855e-07
4.0263833e-10
6.65970918e-07
3.92841748e-10
6.65918618e-07
3.8283674e-10
6.65867958e-07
3.72640734e-10
6.65818942e-07
3.62267678e-10
6.65771574e-07
3.51724876e-10
6.65725858e-07
3.41022269e-10
6.65681804e-07
3.30121933e-10
6.65639369e-07
3.19162204e-10
6.65598626e-07
3.07477424e-10
6.65558824e-07
2.97898811e-10
2.78651613e-10
6.66717311e-07
-2.11830547e-10
6.66863618e-07
-6.34130058e-10
6.67090032e-07
-9.69394163e-10
6.67362707e-07
-1.13440217e-09
6.67641346e-07
-1.09538007e-09
6.6788677e-07
-8.59561916e-10
6.68066193e-07
-4.62312283e-10
6.68158108e-07
4.31635636e-11
6.6814983e-07
5.87985424e-10
6.68044349e-07
1.10675524e-09
6.67854967e-07
1.54752761e-09
6.67601695e-07
1.87432985e-09
6.67307909e-07
2.06804188e-09
6.66997841e-07
2.12485241e-09
6.66694644e-07
2.05298619e-09
6.66419178e-07
1.86815345e-09
6.6618924e-07
1.59062069e-09
6.66018535e-07
1.24638034e-09
6.6591483e-07
8.71337415e-10
6.65877596e-07
5.13893208e-10
6.6589614e-07
2.31374097e-10
6.65948346e-07
8.02188594e-11
6.66000964e-07
1.02497611e-10
6.66018e-07
3.10492367e-10
6.65967779e-07
6.84572439e-10
6.65826704e-07
1.17964966e-09
6.65582169e-07
1.73466178e-09
6.65233263e-07
2.28508211e-09
6.64789688e-07
2.77382934e-09
6.64269235e-07
3.15838744e-09
6.63694598e-07
3.41343593e-09
6.63090364e-07
3.52997481e-09
6.62480586e-07
3.51262834e-09
6.61887016e-07
3.37679092e-09
6.61327754e-07
3.146748e-09
6.60815952e-07
2.8549846e-09
6.60358366e-07
2.54190359e-09
6.59953792e-07
2.25453496e-09
6.59591829e-07
2.04278677e-09
6.5925285e-07
1.95261692e-09
6.58910018e-07
2.01706758e-09
6.58533426e-07
2.24765767e-09
6.58095357e-07
2.62929548e-09
6.57575323e-07
3.12114304e-09
6.56963665e-07
3.66413414e-09
6.5626288e-07
4.19365206e-09
6.55486284e-07
4.6538784e-09
6.54654348e-07
5.00946752e-09
6.53789726e-07
5.25097496e-09
6.52912481e-07
5.39264421e-09
6.52036827e-07
5.46391692e-09
6.51170116e-07
5.49817276e-09
6.50313906e-07
5.52281485e-09
6.49466294e-07
5.55370488e-09
6.48624426e-07
5.59478664e-09
6.47786325e-07
5.64161403e-09
6.46951665e-07
5.68634724e-09
6.46121616e-07
5.72192421e-09
6.45298217e-07
5.74416498e-09
6.44483688e-07
5.75182717e-09
6.43680005e-07
5.74545491e-09
6.42888763e-07
5.72602654e-09
6.42111264e-07
5.69406127e-09
6.4134868e-07
5.64935385e-09
6.40602188e-07
5.59113928e-09
6.39873043e-07
5.51840251e-09
6.39162594e-07
5.43011909e-09
6.3847228e-07
5.32534484e-09
6.37803624e-07
5.2032202e-09
6.37158245e-07
5.06293147e-09
6.3653787e-07
4.90367828e-09
6.35944357e-07
4.72468461e-09
6.35379708e-07
4.52521909e-09
6.34846086e-07
4.30461255e-09
6.34345823e-07
4.06228495e-09
6.3388143e-07
3.79775594e-09
6.33455611e-07
3.5106428e-09
6.33071255e-07
3.20066522e-09
6.32731418e-07
2.86763838e-09
6.32439266e-07
2.51146483e-09
6.32197972e-07
2.13213326e-09
6.32010785e-07
1.72977933e-09
6.31881298e-07
1.3048368e-09
6.3181242e-07
8.581164e-10
6.31805003e-07
3.91834052e-10
6.3185852e-07
-9.21782692e-11
6.31985051e-07
-5.93653546e-10
6.32187173e-07
-1.10899673e-09
6.32468445e-07
-1.63654282e-09
6.32830753e-07
-2.17392149e-09
6.3327586e-07
-2.71828098e-09
6.3380504e-07
-3.26614104e-09
6.34418786e-07
-3.81346987e-09
6.35116774e-07
-4.35570577e-09
6.35897791e-07
-4.88783601e-09
6.36759645e-07
-5.40449213e-09
6.37699099e-07
-5.90006479e-09
6.38711836e-07
-6.36883988e-09
6.39792458e-07
-6.80514811e-09
6.40934517e-07
-7.20354683e-09
6.42130587e-07
-7.55900092e-09
6.43372373e-07
-7.86704732e-09
6.4465086e-07
-8.12396859e-09
6.45956491e-07
-8.32692055e-09
6.47279374e-07
-8.47404144e-09
6.48609496e-07
-8.56449616e-09
6.49936954e-07
-8.59851489e-09
6.51252165e-07
-8.57734469e-09
6.52546065e-07
-8.5031996e-09
6.53810287e-07
-8.3791512e-09
6.55037292e-07
-8.2090098e-09
6.56220479e-07
-7.99716384e-09
6.57354249e-07
-7.74843729e-09
6.58434031e-07
-7.46793179e-09
6.59456281e-07
-7.16086377e-09
6.60418448e-07
-6.83243795e-09
6.61318916e-07
-6.48772444e-09
6.62156931e-07
-6.13154592e-09
6.62932508e-07
-5.7684071e-09
6.6364634e-07
-5.40243304e-09
6.64299699e-07
-5.03731979e-09
6.64894342e-07
-4.67632215e-09
6.65432417e-07
-4.32224138e-09
6.65916381e-07
-3.97743608e-09
6.66348916e-07
-3.64383077e-09
6.66732859e-07
-3.32294667e-09
6.67071137e-07
-3.01593221e-09
6.67366728e-07
-2.72359518e-09
6.67622631e-07
-2.44644741e-09
6.67841819e-07
-2.18474138e-09
6.68027201e-07
-1.93850275e-09
6.68181596e-07
-1.70757256e-09
6.68307731e-07
-1.49165021e-09
6.68408253e-07
-1.29031193e-09
6.6848566e-07
-1.10301175e-09
6.68542323e-07
-9.29237981e-10
6.68580513e-07
-7.68489758e-10
6.68602395e-07
-6.20239789e-10
6.68610019e-07
-4.83930825e-10
6.68605344e-07
-3.59059734e-10
6.68590187e-07
-2.45151326e-10
6.68566081e-07
-1.41678888e-10
6.68534273e-07
-4.81643679e-11
6.68494838e-07
3.69382735e-11
6.6844752e-07
1.13249998e-10
6.68393901e-07
1.8146609e-10
6.68334922e-07
2.42154784e-10
6.68271281e-07
2.9586177e-10
6.68203587e-07
3.4314551e-10
6.68132431e-07
3.84548632e-10
6.68058374e-07
4.2059408e-10
6.67981932e-07
4.51769243e-10
6.67903588e-07
4.78524223e-10
6.67823788e-07
5.0127532e-10
6.67742941e-07
5.20404229e-10
6.67661416e-07
5.3625748e-10
6.67579546e-07
5.4914934e-10
6.67497622e-07
5.5936433e-10
6.67415897e-07
5.6715891e-10
6.67334593e-07
5.72765156e-10
6.67253896e-07
5.7639295e-10
6.67173969e-07
5.78233223e-10
6.67094949e-07
5.78459192e-10
6.67016955e-07
5.77229819e-10
6.66940089e-07
5.746899e-10
6.66864439e-07
5.70972424e-10
6.66790083e-07
5.66198962e-10
6.66717088e-07
5.60481034e-10
6.66645513e-07
5.53919753e-10
6.66575406e-07
5.46607247e-10
6.66506812e-07
5.38627129e-10
6.66439767e-07
5.30054125e-10
6.663743e-07
5.20955441e-10
6.66310436e-07
5.11391262e-10
6.66248192e-07
5.01414506e-10
6.6618758e-07
4.91072207e-10
6.6612861e-07
4.80406024e-10
6.66071286e-07
4.69451971e-10
6.66015609e-07
4.58241666e-10
6.65961577e-07
4.46802111e-10
6.6590919e-07
4.35156323e-10
6.65858444e-07
4.23322402e-10
6.65809336e-07
4.11314573e-10
6.65761862e-07
3.99139947e-10
6.65716019e-07
3.86809628e-10
6.65671809e-07
3.74280799e-10
6.65629209e-07
3.61707458e-10
6.65588339e-07
3.48317031e-10
6.65548952e-07
3.37160763e-10
3.14861875e-10
6.66715035e-07
-2.59936142e-10
6.66864438e-07
-7.83698345e-10
6.67101572e-07
-1.20675006e-09
6.67393307e-07
-1.42624133e-09
6.67696214e-07
-1.39831138e-09
6.67965749e-07
-1.12911321e-09
6.68162572e-07
-6.59156955e-10
6.68260555e-07
-5.44774123e-11
6.68254704e-07
5.94159002e-10
6.68143074e-07
1.21880701e-09
6.6793958e-07
1.75150618e-09
6.67665854e-07
2.14857183e-09
6.67347823e-07
2.38661701e-09
6.67012561e-07
2.46067527e-09
6.66686166e-07
2.37994648e-09
6.66392349e-07
2.16252918e-09
6.66151431e-07
1.83208522e-09
6.65979028e-07
1.41931515e-09
6.65883767e-07
9.67119132e-10
6.65864103e-07
5.34083869e-10
6.65905543e-07
1.904767e-10
6.65981104e-07
5.40120583e-12
6.66062559e-07
2.1631411e-11
6.66113263e-07
2.60162387e-10
6.66094956e-07
7.0324497e-10
6.6597876e-07
1.29622179e-09
6.65748517e-07
1.96527859e-09
6.65402248e-07
2.63172477e-09
6.64950531e-07
3.22591818e-09
6.64413371e-07
3.69591631e-09
6.63816516e-07
4.01065364e-09
6.63188002e-07
4.15884267e-09
6.62555391e-07
4.14558349e-09
6.61943717e-07
3.98879754e-09
6.61373843e-07
3.71694502e-09
6.60860816e-07
3.36832418e-09
6.60412054e-07
2.99096802e-09
6.60025648e-07
2.64123284e-09
6.59689434e-07
2.37927639e-09
6.59381437e-07
2.26087312e-09
6.5907205e-07
2.3267014e-09
6.58728035e-07
2.59191243e-09
6.58317957e-07
3.03961143e-09
6.57817961e-07
3.62137651e-09
6.57216292e-07
4.26604234e-09
6.56515124e-07
4.89505997e-09
6.55729124e-07
5.44011867e-09
6.54881204e-07
5.8576299e-09
6.53996807e-07
6.13561676e-09
6.53098473e-07
6.29122535e-09
6.52202172e-07
6.36046681e-09
6.51316155e-07
6.38444199e-09
6.50442126e-07
6.39709755e-09
6.49577832e-07
6.41825502e-09
6.48719856e-07
6.45302121e-09
6.47865671e-07
6.49606026e-09
6.47014535e-07
6.5377477e-09
6.46167366e-07
6.56936171e-09
6.45326062e-07
6.58574162e-09
6.44492764e-07
6.58540144e-09
6.43669378e-07
6.56912234e-09
6.42857421e-07
6.53826938e-09
6.4205811e-07
6.49366255e-09
6.41272533e-07
6.43522595e-09
6.40501792e-07
6.36217934e-09
6.39747081e-07
6.27341631e-09
6.39009706e-07
6.16779958e-09
6.38291086e-07
6.04427221e-09
6.37592751e-07
5.90186258e-09
6.36916353e-07
5.73963558e-09
6.36263683e-07
5.55665109e-09
6.35636691e-07
5.35197407e-09
6.35037503e-07
5.12469776e-09
6.34468432e-07
4.8739652e-09
6.33931984e-07
4.59900218e-09
6.33430863e-07
4.29913277e-09
6.32967964e-07
3.97378209e-09
6.3254636e-07
3.62249002e-09
6.32169282e-07
3.2449164e-09
6.31840076e-07
2.84084681e-09
6.31562136e-07
2.41022265e-09
6.3133884e-07
1.95319601e-09
6.31173568e-07
1.47019504e-09
6.31069862e-07
9.61866799e-10
6.3103275e-07
4.28936887e-10
6.31067031e-07
-1.26606114e-10
6.31175766e-07
-7.02501683e-10
6.31363027e-07
-1.29640589e-09
6.31632463e-07
-1.90618026e-09
6.31987425e-07
-2.52913768e-09
6.32430572e-07
-3.16173595e-09
6.32963839e-07
-3.79977121e-09
6.33588375e-07
-4.43842626e-09
6.34304438e-07
-5.07224623e-09
6.35111258e-07
-5.69519267e-09
6.3600692e-07
-6.30074815e-09
6.36988267e-07
-6.88206124e-09
6.3805084e-07
-7.43211708e-09
6.39188864e-07
-7.94392702e-09
6.40395275e-07
-8.41076068e-09
6.41661807e-07
-8.8263783e-09
6.4297912e-07
-9.18524431e-09
6.44336987e-07
-9.4827507e-09
6.45724508e-07
-9.71538482e-09
6.47130377e-07
-9.88087169e-09
6.4854314e-07
-9.97823498e-09
6.49951488e-07
-1.00078441e-08
6.51344514e-07
-9.97135223e-09
6.52711966e-07
-9.8716253e-09
6.5404445e-07
-9.71259555e-09
6.55333599e-07
-9.49910044e-09
6.56572191e-07
-9.2366718e-09
6.57754213e-07
-8.93134644e-09
6.58874889e-07
-8.58946167e-09
6.59930658e-07
-8.21744907e-09
6.60919119e-07
-7.82167485e-09
6.6183895e-07
-7.40828903e-09
6.62689805e-07
-6.9830912e-09
6.63472202e-07
-6.5514488e-09
6.64187398e-07
-6.11822906e-09
6.64837272e-07
-5.68774758e-09
6.65424201e-07
-5.26376065e-09
6.65950953e-07
-4.84945901e-09
6.66420583e-07
-4.44748929e-09
6.66836344e-07
-4.05997425e-09
6.67201612e-07
-3.68855802e-09
6.67519822e-07
-3.33444763e-09
6.67794408e-07
-2.99845255e-09
6.6802876e-07
-2.68103727e-09
6.68226183e-07
-2.38237099e-09
6.68389878e-07
-2.10237575e-09
6.68522927e-07
-1.84077295e-09
6.68628268e-07
-1.59711653e-09
6.68708687e-07
-1.37083224e-09
6.68766867e-07
-1.16127002e-09
6.68805317e-07
-9.67742787e-10
6.68826356e-07
-7.89561848e-10
6.68832126e-07
-6.26019496e-10
6.68824385e-07
-4.76178933e-10
6.68804514e-07
-3.3915782e-10
6.68773646e-07
-2.1424238e-10
6.68732753e-07
-1.00747807e-10
6.68682917e-07
1.81156137e-12
6.68626928e-07
9.30045669e-11
6.68565269e-07
1.7498655e-10
6.68498726e-07
2.48101129e-10
6.68427941e-07
3.13038885e-10
6.68353527e-07
3.70380105e-10
6.68276058e-07
4.20725675e-10
6.68196056e-07
4.64665301e-10
6.68114008e-07
5.02760783e-10
6.68030359e-07
5.3554005e-10
6.67945513e-07
5.63493024e-10
6.67859838e-07
5.87073128e-10
6.67773668e-07
6.06697196e-10
6.67687303e-07
6.22744545e-10
6.67601013e-07
6.35559724e-10
6.6751504e-07
6.45455392e-10
6.674296e-07
6.52714371e-10
6.67344884e-07
6.57593754e-10
6.6726106e-07
6.60327084e-10
6.67178272e-07
6.61127571e-10
6.67096647e-07
6.60188989e-10
6.67016289e-07
6.5768914e-10
6.66937287e-07
6.53789598e-10
6.66859718e-07
6.48638189e-10
6.66783641e-07
6.42369365e-10
6.66709107e-07
6.35105786e-10
6.66636157e-07
6.26958009e-10
6.66564823e-07
6.18026233e-10
6.66495132e-07
6.08400958e-10
6.66427104e-07
5.98162716e-10
6.66360753e-07
5.8738371e-10
6.6629609e-07
5.76128471e-10
6.66233123e-07
5.64453612e-10
6.66171855e-07
5.52409409e-10
6.66112287e-07
5.40040355e-10
6.66054417e-07
5.2738485e-10
6.65998243e-07
5.14476595e-10
6.65943759e-07
5.01344349e-10
6.65890958e-07
4.88012679e-10
6.65839833e-07
4.74501004e-10
6.65790372e-07
4.6082501e-10
6.65742567e-07
4.46993094e-10
6.65696401e-07
4.33020573e-10
6.65651864e-07
4.18862551e-10
6.6560889e-07
4.04716248e-10
6.65567534e-07
3.8972665e-10
6.65527074e-07
3.77565559e-10
3.53285268e-10
6.6671588e-07
-3.08984747e-10
6.6686677e-07
-9.34705581e-10
6.67104885e-07
-1.44500889e-09
6.6739674e-07
-1.71812471e-09
6.67700125e-07
-1.70168385e-09
6.67972489e-07
-1.40152334e-09
6.68177175e-07
-8.63938028e-10
6.68290827e-07
-1.68264449e-10
6.68287798e-07
5.96879918e-10
6.68178407e-07
1.32783588e-09
6.67976673e-07
1.95283074e-09
6.67704224e-07
2.42060243e-09
6.67386539e-07
2.70387177e-09
6.67050511e-07
2.79626304e-09
6.66722273e-07
2.7077392e-09
6.66425693e-07
2.458665e-09
6.66181297e-07
2.07603798e-09
6.66004937e-07
1.59522849e-09
6.65905749e-07
1.06584657e-09
6.65884057e-07
5.55279468e-10
6.6593024e-07
1.43757558e-10
6.6601945e-07
-8.448876e-11
6.66114031e-07
-7.33777517e-11
6.66171005e-07
2.02844002e-10
6.66157408e-07
7.16533004e-10
6.6604672e-07
1.40659448e-09
6.65823905e-07
2.1877955e-09
6.65486464e-07
2.96887916e-09
6.65043875e-07
3.6682268e-09
6.64515108e-07
4.2244068e-09
6.63925152e-07
4.60033763e-09
6.6330162e-07
4.78210817e-09
6.62671946e-07
4.77499921e-09
6.62061247e-07
4.59924772e-09
6.61490629e-07
4.28732832e-09
6.60975589e-07
3.88314236e-09
6.60524345e-07
3.44200816e-09
6.6013607e-07
3.02932778e-09
6.59799478e-07
2.71571667e-09
6.59492791e-07
2.56743706e-09
6.59185923e-07
2.63346123e-09
6.58844902e-07
2.93282141e-09
6.58437721e-07
3.44666257e-09
6.57940124e-07
4.11881585e-09
6.57339896e-07
4.86608378e-09
6.56638592e-07
5.59615219e-09
6.55850243e-07
6.22823425e-09
6.54997366e-07
6.71025716e-09
6.54105412e-07
7.02730702e-09
6.53197313e-07
7.1990509e-09
6.52289646e-07
7.26785278e-09
6.5139128e-07
7.28252001e-09
6.50504405e-07
7.28367963e-09
6.49627046e-07
7.2953131e-09
6.48755887e-07
7.32387321e-09
6.47888376e-07
7.36325542e-09
6.47023696e-07
7.40210467e-09
6.46162677e-07
7.43004782e-09
6.45307144e-07
7.44093465e-09
6.44459168e-07
7.43303003e-09
6.43620578e-07
7.40735719e-09
6.42792806e-07
7.36568036e-09
6.41976968e-07
7.30913298e-09
6.41174048e-07
7.23777491e-09
6.40385046e-07
7.1508062e-09
6.39611071e-07
7.0470135e-09
6.38853368e-07
6.92512419e-09
6.38113318e-07
6.78394342e-09
6.37392444e-07
6.62236149e-09
6.36692412e-07
6.43929615e-09
6.36015055e-07
6.23364345e-09
6.35362383e-07
6.00428937e-09
6.34736598e-07
5.75013773e-09
6.34140095e-07
5.47013615e-09
6.33575465e-07
5.16331369e-09
6.33045499e-07
4.828798e-09
6.32553181e-07
4.46581852e-09
6.32101685e-07
4.07372374e-09
6.31694371e-07
3.65199085e-09
6.31334766e-07
3.20023584e-09
6.31026552e-07
2.71824545e-09
6.30773573e-07
2.20601292e-09
6.30579848e-07
1.6637888e-09
6.30449422e-07
1.09219601e-09
6.3038594e-07
4.92358417e-10
6.30393788e-07
-1.34464684e-10
6.30477853e-07
-7.86551185e-10
6.30643306e-07
-1.46181181e-09
6.30894672e-07
-2.15746147e-09
6.31235848e-07
-2.87018983e-09
6.31670258e-07
-3.59598495e-09
6.32200716e-07
-4.33003192e-09
6.32829213e-07
-5.06668943e-09
6.33556746e-07
-5.79951072e-09
6.34383162e-07
-6.52130648e-09
6.35306997e-07
-7.22424763e-09
6.36325335e-07
-7.90003351e-09
6.37433714e-07
-8.54010157e-09
6.38626074e-07
-9.13586584e-09
6.39894772e-07
-9.67901219e-09
6.41230664e-07
-1.01618003e-08
6.42623257e-07
-1.0577347e-08
6.44060934e-07
-1.091992e-08
6.45531236e-07
-1.11851629e-08
6.47021185e-07
-1.13702826e-08
6.48517631e-07
-1.14741328e-08
6.50007612e-07
-1.14972685e-08
6.51478686e-07
-1.14418645e-08
6.52919238e-07
-1.13116119e-08
6.5431873e-07
-1.11115218e-08
6.55667898e-07
-1.08477059e-08
6.56958884e-07
-1.05271003e-08
6.58185301e-07
-1.01572145e-08
6.59342246e-07
-9.74586772e-09
6.60426252e-07
-9.30092934e-09
6.61435206e-07
-8.83011881e-09
6.62368233e-07
-8.34082284e-09
6.63225554e-07
-7.83993801e-09
6.64008337e-07
-7.33377864e-09
6.64718545e-07
-6.82800468e-09
6.65358779e-07
-6.32757242e-09
6.65932142e-07
-5.8367368e-09
6.66442102e-07
-5.35905655e-09
6.66892382e-07
-4.89743024e-09
6.67286853e-07
-4.45413032e-09
6.67629451e-07
-4.03086383e-09
6.67924102e-07
-3.62882891e-09
6.68174667e-07
-3.24876985e-09
6.68384901e-07
-2.8910453e-09
6.68558422e-07
-2.55568682e-09
6.68698681e-07
-2.24245063e-09
6.68808947e-07
-1.95087324e-09
6.68892295e-07
-1.68031725e-09
6.68951604e-07
-1.43001227e-09
6.68989537e-07
-1.1990927e-09
6.69008521e-07
-9.86634065e-10
6.6901072e-07
-7.91688499e-10
6.68998062e-07
-6.13308717e-10
6.68972484e-07
-4.50572971e-10
6.68935966e-07
-3.02635274e-10
6.68890453e-07
-1.68741541e-10
6.68837751e-07
-4.80586303e-11
6.68778452e-07
6.09760788e-11
6.68712833e-07
1.58579654e-10
6.6864194e-07
2.45825381e-10
6.68566608e-07
3.23372421e-10
6.68487602e-07
3.91979549e-10
6.68405551e-07
4.52360257e-10
6.68321017e-07
5.05185988e-10
6.68234507e-07
5.51098816e-10
6.68146481e-07
5.90706591e-10
6.68057362e-07
6.24578532e-10
6.6796753e-07
6.5324217e-10
6.67877334e-07
6.77185676e-10
6.67787089e-07
6.96859853e-10
6.67697073e-07
7.12678184e-10
6.67607532e-07
7.25019146e-10
6.6751868e-07
7.34227994e-10
6.67430699e-07
7.4061773e-10
6.67343745e-07
7.44472689e-10
6.67257948e-07
7.46050256e-10
6.67173419e-07
7.45584111e-10
6.67090252e-07
7.43285215e-10
6.67008526e-07
7.39345958e-10
6.66928308e-07
7.33940169e-10
6.66849653e-07
7.272262e-10
6.6677261e-07
7.19347575e-10
6.66697217e-07
7.10434949e-10
6.66623507e-07
7.00605922e-10
6.66551506e-07
6.89967098e-10
6.66481233e-07
6.78614907e-10
6.66412703e-07
6.66635316e-10
6.66345926e-07
6.54105638e-10
6.66280906e-07
6.41095176e-10
6.66217643e-07
6.27664849e-10
6.66156134e-07
6.1386881e-10
6.66096371e-07
5.99754937e-10
6.66038345e-07
5.85364384e-10
6.65982045e-07
5.70733065e-10
6.65927455e-07
5.55891399e-10
6.65874562e-07
5.40865219e-10
6.65823348e-07
5.25674884e-10
6.65773799e-07
5.10337104e-10
6.65725895e-07
4.94861354e-10
6.65679614e-07
4.79265979e-10
6.65634942e-07
4.63503568e-10
6.65591828e-07
4.47792233e-10
6.65550368e-07
4.31171814e-10
6.65510246e-07
4.17573251e-10
3.9040221e-10
6.66717253e-07
-3.59302411e-10
6.66872465e-07
-1.09003703e-09
6.67118536e-07
-1.69122537e-09
6.67421278e-07
-2.020878e-09
6.67736593e-07
-2.01693423e-09
6.68019643e-07
-1.68450921e-09
6.68230595e-07
-1.0748272e-09
6.68339709e-07
-2.77289595e-10
6.6834202e-07
5.94768604e-10
6.68233942e-07
1.43613016e-09
6.68029276e-07
2.15772958e-09
6.67750092e-07
2.70001418e-09
6.67423401e-07
3.03079495e-09
6.67077863e-07
3.14203754e-09
6.66741453e-07
3.04438825e-09
6.66439819e-07
2.76054185e-09
6.6619505e-07
2.3210579e-09
6.66024186e-07
1.76635675e-09
6.6593679e-07