/*--------------------------------*- C++ -*----------------------------------*\
| =========                 |                                                 |
| \\      /  F ield         | OpenFOAM: The Open Source CFD Toolbox           |
|  \\    /   O peration     | Version:  v2012                                 |
|   \\  /    A nd           | Website:  www.openfoam.com                      |
|    \\/     M anipulation  |                                                 |
\*---------------------------------------------------------------------------*/
FoamFile
{
    version     2.0;
    format      ascii;
    class       volScalarField;
    location    "2.74";
    object      rAU;
}
// * * * * * * * * * * * * * * * * * * * * * * * * * * * * * * * * * * * * * //

dimensions      [0 0 1 0 0 0 0];


internalField   nonuniform List<scalar> 
28416
(
0.000661935502
0.000661945361
0.000661941736
0.000661938495
0.000661936258
0.000661935407
0.000661935432
0.000661929184
0.000661922493
0.000661917174
0.000661913705
0.00066191233
0.000661913058
0.000661915693
0.000661919896
0.000661925252
0.000661931309
0.00066193759
0.00066194356
0.000661948617
0.000661952167
0.000661953764
0.000661953262
0.000661950951
0.000661947398
0.000661943343
0.000661939648
0.000661937084
0.000661936232
0.000661937429
0.00066194078
0.000661946181
0.000661953358
0.000661961908
0.000661971324
0.000661981025
0.000661990393
0.000661998827
0.000662005813
0.000662011015
0.000662014337
0.000662015965
0.000662016356
0.000662016179
0.000662016205
0.000662017155
0.000662019552
0.00066202363
0.000662029311
0.000662036276
0.000662044081
0.000662052295
0.000662060594
0.000662068807
0.000662076898
0.000662084916
0.000662092936
0.000662101016
0.000662109181
0.000662117427
0.000662125734
0.000662134085
0.000662142465
0.000662150875
0.000662159314
0.000662167788
0.000662176303
0.000662184858
0.000662193451
0.000662202085
0.000662210751
0.000662219441
0.000662228149
0.000662236856
0.000662245544
0.000662254193
0.000662262769
0.000662271235
0.000662279548
0.00066228764
0.000662295504
0.000662303139
0.000662310512
0.000662317616
0.000662324452
0.000662331063
0.000662328918
0.000662323091
0.000662316313
0.000662308604
0.00066229999
0.000662290498
0.000662280159
0.000662269013
0.000662257116
0.000662244525
0.000662231313
0.000662217563
0.000662203361
0.000662188804
0.000662173996
0.000662159037
0.000662144033
0.000662129087
0.000662114303
0.000662099771
0.000662085586
0.000662071826
0.000662058564
0.000662045862
0.000662033776
0.000662022342
0.00066201159
0.000662001545
0.000661992213
0.000661983595
0.000661975687
0.000661968474
0.000661961934
0.000661956048
0.000661950785
0.000661946113
0.000661942001
0.000661938418
0.000661935326
0.000661932691
0.000661930484
0.000661928669
0.000661927215
0.000661926096
0.000661925278
0.000661924733
0.000661924439
0.000661924366
0.000661924489
0.000661924787
0.000661925232
0.000661925801
0.000661926476
0.00066192723
0.000661928041
0.00066192889
0.000661929766
0.000661930663
0.000661931314
0.000661930643
0.000661930061
0.000661929673
0.000661929461
0.000661929402
0.000661929479
0.000661929677
0.000661929979
0.000661930371
0.000661930844
0.000661931384
0.000661931981
0.000661932631
0.000661933323
0.000661934051
0.000661934809
0.000661935596
0.000661936402
0.000661937229
0.000661938068
0.000661938918
0.000661939774
0.000661940637
0.000661941501
0.000661942362
0.000661943224
0.000661944079
0.000661944927
0.00066194577
0.000661946602
0.000661947423
0.000661948236
0.000661949036
0.000661949823
0.000661950596
0.000661951357
0.000661952104
0.000661952835
0.000661953553
0.000661954255
0.000661954939
0.000661955609
0.000661956269
0.000661956875
0.000661970698
0.000661925145
0.000661934016
0.000661929475
0.000661925528
0.000661922877
0.000661921933
0.000661922832
0.000661921268
0.00066191641
0.00066191295
0.000661911188
0.000661911222
0.000661912951
0.000661916124
0.000661920391
0.000661925362
0.000661930632
0.000661935794
0.000661940422
0.00066194407
0.000661946345
0.000661947012
0.000661946079
0.000661943851
0.000661940891
0.000661937908
0.000661935624
0.000661934644
0.000661935372
0.00066193797
0.000661942392
0.000661948421
0.000661955725
0.000661963901
0.000661972505
0.000661981073
0.000661989148
0.000661996311
0.000662002232
0.00066200673
0.000662009828
0.000662011783
0.00066201307
0.000662014315
0.000662016176
0.000662019206
0.000662023742
0.000662029846
0.000662037325
0.000662045811
0.000662054875
0.000662064144
0.000662073368
0.000662082439
0.000662091363
0.000662100206
0.000662109042
0.000662117917
0.000662126843
0.000662135806
0.000662144778
0.000662153735
0.000662162657
0.000662171537
0.000662180367
0.000662189143
0.000662197864
0.00066220652
0.000662215101
0.000662223602
0.000662232007
0.000662240303
0.000662248479
0.000662256512
0.000662264382
0.000662272067
0.000662279536
0.000662286757
0.000662293699
0.000662300321
0.000662306595
0.0006623125
0.000662317999
0.000662323061
0.00066232762
0.000662331049
0.000662325684
0.00066231909
0.000662311549
0.000662303046
0.000662293587
0.000662283193
0.000662271891
0.000662259724
0.000662246754
0.000662233043
0.000662218671
0.000662203735
0.00066218833
0.000662172568
0.000662156567
0.000662140444
0.00066212432
0.000662108315
0.000662092547
0.000662077123
0.000662062148
0.00066204771
0.00066203389
0.000662020755
0.000662008361
0.000661996745
0.000661985934
0.000661975946
0.00066196678
0.000661958428
0.000661950877
0.0006619441
0.000661938065
0.00066193274
0.000661928083
0.000661924054
0.000661920608
0.000661917707
0.000661915303
0.000661913355
0.000661911826
0.000661910673
0.00066190986
0.000661909356
0.000661909124
0.000661909134
0.00066190936
0.000661909772
0.000661910346
0.000661911062
0.000661911894
0.000661912821
0.000661913829
0.000661914898
0.000661916014
0.000661917163
0.000661918339
0.000661919528
0.000661919685
0.000661919537
0.000661919525
0.000661919639
0.000661919869
0.000661920202
0.000661920623
0.000661921127
0.0006619217
0.000661922331
0.000661923017
0.000661923744
0.000661924507
0.000661925303
0.000661926122
0.00066192696
0.000661927813
0.00066192868
0.000661929552
0.000661930431
0.000661931311
0.00066193219
0.000661933066
0.000661933939
0.000661934804
0.00066193566
0.00066193651
0.000661937347
0.000661938171
0.000661938985
0.000661939784
0.000661940567
0.000661941339
0.000661942094
0.000661942833
0.000661943555
0.000661944263
0.000661944954
0.000661945627
0.000661946285
0.000661946926
0.000661947548
0.000661948155
0.00066194875
0.000661949308
0.00066196303
0.00066192456
0.000661932256
0.000661926794
0.000661922366
0.000661919737
0.000661919279
0.000661921028
0.000661922592
0.000661916515
0.000661911844
0.000661909012
0.000661908202
0.00066190936
0.000661912253
0.000661916523
0.000661921759
0.000661927524
0.000661933367
0.000661938796
0.000661943262
0.000661946238
0.00066194734
0.000661946468
0.000661943895
0.000661940211
0.000661936193
0.000661932679
0.000661930408
0.000661929919
0.000661931487
0.000661935138
0.000661940695
0.000661947831
0.000661956123
0.000661965089
0.000661974211
0.000661982954
0.000661990798
0.000661997294
0.000662002147
0.000662005289
0.000662006932
0.000662007564
0.000662007885
0.000662008674
0.000662010635
0.000662014248
0.000662019678
0.00066202677
0.000662035135
0.000662044276
0.00066205373
0.000662063172
0.000662072445
0.000662081538
0.000662090524
0.000662099495
0.00066210852
0.00066211762
0.000662126786
0.000662135987
0.000662145196
0.00066215439
0.000662163561
0.000662172702
0.00066218181
0.000662190885
0.000662199918
0.0006622089
0.000662217828
0.000662226685
0.00066223546
0.000662244143
0.000662252712
0.000662261148
0.00066226943
0.00066227753
0.000662285417
0.000662293062
0.000662300428
0.000662307476
0.000662314174
0.000662320471
0.000662326326
0.000662331704
0.000662334991
0.000662328672
0.000662321367
0.000662313063
0.000662303747
0.000662293431
0.000662282137
0.000662269893
0.000662256746
0.00066224276
0.000662228007
0.000662212576
0.000662196571
0.000662180104
0.000662163297
0.000662146285
0.0006621292
0.000662112178
0.000662095353
0.000662078859
0.000662062812
0.000662047328
0.000662032502
0.000662018418
0.000662005143
0.000661992731
0.000661981215
0.000661970615
0.00066196094
0.000661952177
0.000661944309
0.000661937311
0.000661931142
0.000661925758
0.000661921118
0.000661917168
0.000661913856
0.000661911131
0.000661908944
0.000661907243
0.000661905979
0.000661905112
0.000661904594
0.000661904387
0.000661904458
0.000661904768
0.000661905286
0.000661905988
0.000661906843
0.000661907828
0.000661908925
0.000661910107
0.000661911356
0.000661912657
0.000661913988
0.000661915335
0.00066191668
0.000661918016
0.000661918912
0.000661918604
0.00066191844
0.000661918422
0.000661918535
0.000661918769
0.000661919108
0.00066191954
0.000661920056
0.000661920642
0.000661921289
0.000661921992
0.000661922738
0.00066192352
0.000661924335
0.000661925175
0.000661926034
0.000661926908
0.000661927796
0.000661928689
0.00066192959
0.000661930492
0.000661931393
0.00066193229
0.000661933184
0.000661934071
0.000661934949
0.000661935819
0.000661936678
0.000661937523
0.000661938358
0.000661939177
0.000661939981
0.000661940773
0.000661941548
0.000661942307
0.000661943049
0.000661943777
0.000661944487
0.00066194518
0.000661945858
0.000661946518
0.000661947161
0.000661947788
0.000661948404
0.000661948976
0.000661962715
0.000661924001
0.000661930572
0.00066192408
0.000661918917
0.00066191595
0.000661915601
0.000661917906
0.000661921994
0.000661915244
0.000661909443
0.000661905732
0.000661904362
0.000661905296
0.000661908283
0.00066191292
0.000661918736
0.000661925227
0.000661931867
0.000661938075
0.000661943199
0.000661946605
0.000661947825
0.000661946688
0.000661943379
0.000661938545
0.000661933131
0.00066192816
0.000661924545
0.000661922954
0.000661923745
0.000661926976
0.000661932453
0.000661939804
0.000661948541
0.000661958103
0.000661967885
0.000661977256
0.000661985599
0.00066199237
0.000661997188
0.00066199993
0.000662000805
0.000662000367
0.000661999438
0.00066199896
0.000661999798
0.000662002558
0.000662007469
0.000662014376
0.000662022824
0.000662032223
0.000662042014
0.000662051794
0.000662061366
0.000662070712
0.000662079924
0.000662089117
0.000662098381
0.000662107751
0.000662117221
0.000662126759
0.000662136333
0.000662145919
0.000662155507
0.000662165092
0.000662174673
0.000662184251
0.000662193818
0.000662203369
0.000662212898
0.000662222392
0.00066223184
0.000662241231
0.000662250545
0.000662259763
0.000662268865
0.000662277821
0.000662286601
0.000662295176
0.000662303507
0.000662311555
0.000662319285
0.000662326648
0.0006623336
0.000662340072
0.000662343373
0.000662336425
0.000662328429
0.000662319359
0.000662309205
0.000662297969
0.000662285672
0.000662272343
0.000662258032
0.000662242809
0.000662226753
0.000662209963
0.00066219256
0.000662174669
0.000662156434
0.000662138008
0.000662119546
0.000662101207
0.000662083146
0.000662065515
0.000662048449
0.00066203208
0.000662016511
0.000662001836
0.000661988125
0.000661975433
0.000661963788
0.000661953203
0.000661943678
0.000661935191
0.000661927708
0.000661921191
0.000661915586
0.000661910835
0.000661906882
0.000661903657
0.0006619011
0.000661899146
0.000661897736
0.000661896809
0.000661896309
0.000661896188
0.000661896393
0.00066189688
0.000661897614
0.000661898554
0.000661899665
0.000661900924
0.000661902297
0.000661903763
0.000661905301
0.000661906888
0.000661908504
0.000661910141
0.000661911784
0.000661913427
0.000661915065
0.000661916661
0.000661916796
0.000661916569
0.000661916496
0.000661916564
0.000661916758
0.000661917068
0.000661917479
0.000661917977
0.000661918557
0.000661919204
0.000661919908
0.000661920665
0.000661921464
0.000661922297
0.000661923162
0.00066192405
0.000661924956
0.000661925876
0.000661926808
0.000661927744
0.000661928686
0.000661929627
0.000661930566
0.000661931499
0.000661932429
0.00066193335
0.00066193426
0.000661935161
0.00066193605
0.000661936924
0.000661937787
0.000661938634
0.000661939465
0.000661940282
0.000661941083
0.000661941867
0.000661942633
0.000661943385
0.000661944118
0.000661944834
0.000661945535
0.000661946217
0.000661946882
0.000661947531
0.000661948171
0.000661948766
0.000661962552
0.000661923431
0.000661928834
0.000661921338
0.000661915561
0.000661912468
0.00066191247
0.000661915515
0.000661921115
0.000661914816
0.000661907786
0.000661903009
0.000661900824
0.000661901245
0.000661904036
0.000661908786
0.000661914995
0.000661922121
0.00066192958
0.000661936709
0.000661942735
0.000661946855
0.000661947431
0.000661946359
0.000661943361
0.000661937668
0.000661931087
0.000661924758
0.000661919741
0.000661916855
0.000661916576
0.000661919037
0.00066192408
0.000661931332
0.000661940277
0.000661950305
0.000661960742
0.000661970866
0.000661979944
0.000661987304
0.000661992442
0.000661995149
0.000661995598
0.000661994372
0.000661992387
0.000661990727
0.00066199042
0.000661992221
0.00066199646
0.000662003012
0.00066201139
0.000662020925
0.000662030962
0.000662041018
0.000662050845
0.000662060411
0.000662069815
0.000662079194
0.000662088656
0.000662098251
0.000662107973
0.00066211779
0.000662127666
0.000662137576
0.000662147507
0.000662157458
0.000662167429
0.000662177423
0.000662187434
0.000662197459
0.000662207493
0.000662217526
0.000662227546
0.000662237545
0.000662247504
0.000662257405
0.000662267229
0.000662276947
0.000662286531
0.000662295952
0.000662305171
0.000662314148
0.000662322843
0.000662331204
0.000662339179
0.000662346712
0.000662350628
0.000662343114
0.000662334472
0.000662324672
0.000662313702
0.000662301561
0.000662288271
0.000662273859
0.000662258377
0.000662241899
0.000662224512
0.000662206328
0.000662187481
0.000662168116
0.000662148397
0.000662128502
0.000662108609
0.000662088904
0.000662069567
0.000662050776
0.000662032684
0.00066201544
0.000661999162
0.000661983951
0.000661969878
0.000661957
0.000661945336
0.000661934892
0.000661925654
0.000661917584
0.000661910634
0.000661904749
0.000661899854
0.000661895877
0.000661892743
0.00066189037
0.000661888682
0.000661887601
0.000661887059
0.000661886985
0.000661887315
0.000661887995
0.000661888967
0.000661890185
0.000661891609
0.000661893197
0.000661894914
0.000661896736
0.000661898632
0.000661900579
0.000661902562
0.00066190456
0.000661906558
0.00066190855
0.00066191052
0.000661912454
0.000661914339
0.000661915437
0.000661915075
0.000661914893
0.00066191487
0.000661914989
0.000661915235
0.000661915598
0.00066191606
0.000661916609
0.000661917238
0.000661917933
0.000661918685
0.000661919488
0.00066192033
0.000661921206
0.000661922112
0.000661923038
0.000661923982
0.000661924936
0.000661925903
0.000661926872
0.000661927845
0.000661928818
0.000661929787
0.000661930749
0.000661931708
0.000661932656
0.000661933593
0.00066193452
0.000661935434
0.000661936333
0.00066193722
0.000661938091
0.000661938944
0.000661939784
0.000661940606
0.000661941411
0.000661942197
0.00066194297
0.000661943723
0.000661944458
0.000661945179
0.000661945881
0.000661946566
0.000661947235
0.000661947894
0.000661948502
0.000661962306
0.000661922846
0.000661927043
0.000661918469
0.000661911964
0.000661908612
0.00066190885
0.000661912597
0.000661919286
0.000661914213
0.000661905915
0.000661900079
0.000661897128
0.000661897116
0.000661899805
0.000661904754
0.000661911418
0.000661919195
0.000661927432
0.000661935375
0.000661942145
0.000661946852
0.000661945645
0.000661944598
0.000661943051
0.000661936327
0.000661928403
0.000661920599
0.000661914145
0.000661910001
0.000661908741
0.000661910555
0.000661915298
0.000661922574
0.00066193182
0.000661942363
0.000661953447
0.000661964262
0.000661973974
0.000661981804
0.000661987148
0.00066198971
0.000661989628
0.000661987512
0.00066198438
0.000661981469
0.000661979978
0.000661980812
0.000661984397
0.000661990636
0.000661999001
0.000662008738
0.000662019095
0.000662029502
0.000662039661
0.000662049518
0.000662059181
0.000662068809
0.000662078529
0.000662088405
0.000662098435
0.000662108587
0.00066211882
0.000662129108
0.00066213944
0.000662149814
0.000662160234
0.000662170707
0.00066218123
0.0006621918
0.000662202418
0.000662213074
0.000662223759
0.000662234467
0.00066224518
0.00066225588
0.000662266551
0.000662277163
0.000662287688
0.000662298096
0.000662308347
0.000662318401
0.000662328215
0.000662337736
0.000662346909
0.000662355665
0.000662361011
0.000662352968
0.000662343693
0.000662333157
0.000662321341
0.00066230824
0.00066229387
0.000662278256
0.000662261449
0.000662243529
0.000662224592
0.000662204761
0.00066218419
0.000662163047
0.000662141521
0.000662119822
0.000662098161
0.000662076756
0.000662055821
0.000662035563
0.000662016162
0.00066199779
0.00066198058
0.000661964643
0.000661950056
0.000661936871
0.000661925103
0.000661914743
0.000661905763
0.000661898107
0.000661891706
0.000661886484
0.000661882346
0.000661879199
0.00066187695
0.000661875497
0.00066187475
0.000661874617
0.000661875017
0.000661875869
0.0006618771
0.00066187865
0.000661880456
0.000661882468
0.000661884642
0.000661886936
0.000661889315
0.000661891753
0.000661894221
0.000661896697
0.000661899165
0.000661901606
0.000661904005
0.000661906355
0.000661908647
0.000661910877
0.000661912775
0.00066191287
0.000661912631
0.00066191257
0.000661912662
0.000661912892
0.000661913243
0.000661913706
0.000661914262
0.0006619149
0.000661915613
0.000661916386
0.000661917212
0.000661918085
0.000661918995
0.000661919934
0.0006619209
0.000661921885
0.000661922884
0.000661923892
0.000661924909
0.000661925926
0.000661926946
0.000661927962
0.000661928972
0.000661929974
0.00066193097
0.000661931954
0.000661932925
0.000661933885
0.00066193483
0.000661935759
0.000661936675
0.000661937574
0.000661938455
0.000661939321
0.000661940169
0.000661940999
0.00066194181
0.000661942606
0.000661943383
0.00066194414
0.000661944883
0.000661945606
0.000661946312
0.000661947001
0.000661947682
0.000661948309
0.000661962153
0.000661922246
0.000661925212
0.000661915553
0.000661908344
0.000661904781
0.000661905314
0.000661909794
0.00066191752
0.000661913683
0.000661904112
0.000661897177
0.000661893395
0.00066189287
0.000661895381
0.000661900476
0.000661907574
0.000661916026
0.000661925118
0.00066193401
0.000661941697
0.000661947092
0.000661943731
0.000661942427
0.000661942952
0.000661935277
0.000661926091
0.000661916835
0.000661908902
0.000661903403
0.000661901036
0.000661902064
0.000661906377
0.000661913575
0.000661923063
0.000661934111
0.000661945888
0.000661957481
0.000661967931
0.000661976327
0.000661981945
0.000661984409
0.000661983833
0.000661980864
0.000661976622
0.000661972488
0.000661969826
0.000661969688
0.000661972599
0.000661978495
0.000661986815
0.000661996726
0.000662007377
0.000662018115
0.000662028587
0.000662038721
0.000662048632
0.000662058497
0.000662068464
0.000662078609
0.000662088933
0.000662099402
0.000662109974
0.000662120619
0.000662131326
0.000662142097
0.000662152938
0.00066216386
0.000662174864
0.00066218595
0.00066219712
0.000662208368
0.000662219687
0.000662231072
0.000662242508
0.000662253978
0.000662265466
0.000662276945
0.000662288387
0.000662299764
0.000662311035
0.000662322161
0.000662333098
0.000662343791
0.000662354183
0.000662364207
0.000662371891
0.000662363356
0.000662353493
0.000662342258
0.000662329623
0.000662315572
0.000662300111
0.000662283261
0.000662265072
0.000662245625
0.000662225023
0.000662203404
0.000662180941
0.000662157828
0.000662134287
0.000662110565
0.000662086911
0.000662063588
0.000662040847
0.000662018935
0.000661998067
0.00066197844
0.000661960209
0.000661943495
0.00066192838
0.000661914913
0.000661903096
0.000661892907
0.000661884296
0.000661877183
0.000661871475
0.000661867068
0.000661863844
0.000661861684
0.000661860471
0.000661860087
0.000661860419
0.000661861362
0.000661862821
0.000661864704
0.000661866931
0.000661869433
0.000661872144
0.000661875008
0.000661877983
0.000661881023
0.000661884094
0.000661887171
0.000661890226
0.000661893239
0.0006618962
0.000661899093
0.000661901909
0.000661904645
0.000661907291
0.000661909846
0.000661910761
0.000661910447
0.000661910321
0.000661910368
0.000661910566
0.000661910899
0.000661911349
0.000661911906
0.000661912553
0.000661913277
0.000661914071
0.000661914923
0.000661915822
0.000661916765
0.00066191774
0.000661918741
0.000661919765
0.000661920805
0.000661921856
0.000661922912
0.000661923976
0.000661925037
0.000661926098
0.000661927154
0.000661928202
0.000661929241
0.000661930271
0.000661931288
0.000661932291
0.000661933282
0.000661934256
0.000661935213
0.000661936156
0.00066193708
0.000661937985
0.000661938875
0.000661939745
0.000661940598
0.00066194143
0.000661942247
0.000661943044
0.000661943821
0.000661944584
0.000661945327
0.000661946052
0.00066194676
0.000661947459
0.000661948099
0.000661961965
0.00066192163
0.000661923331
0.00066191255
0.000661904602
0.000661900799
0.00066190161
0.00066190683
0.000661915647
0.000661913186
0.000661902304
0.000661894244
0.00066188962
0.000661888586
0.000661890936
0.000661896196
0.000661903746
0.000661912879
0.000661922805
0.000661932584
0.000661941091
0.000661946271
0.000661941323
0.000661939732
0.000661941952
0.000661934001
0.000661923467
0.000661912701
0.00066190326
0.000661896404
0.00066189294
0.000661893204
0.000661897109
0.000661904247
0.000661913984
0.000661925528
0.000661937966
0.000661950291
0.000661961441
0.000661970389
0.000661976296
0.000661978693
0.000661977646
0.000661973826
0.000661968447
0.000661963044
0.000661959161
0.000661958008
0.000661960219
0.000661965765
0.000661974052
0.000661984163
0.000661995149
0.000662006267
0.000662017104
0.000662027566
0.00066203777
0.000662047913
0.000662058162
0.000662068604
0.000662079247
0.000662090055
0.000662100983
0.000662112
0.000662123096
0.000662134275
0.000662145549
0.000662156932
0.000662168431
0.00066218005
0.000662191796
0.000662203665
0.000662215655
0.000662227763
0.000662239976
0.00066225228
0.00066226466
0.000662277088
0.000662289537
0.000662301979
0.000662314374
0.00066232668
0.000662338856
0.000662350844
0.000662362587
0.000662374014
0.000662384467
0.000662376211
0.000662365806
0.000662353897
0.000662340443
0.000662325415
0.000662308807
0.000662290629
0.000662270924
0.000662249775
0.000662227291
0.000662203625
0.000662178973
0.000662153561
0.000662127652
0.000662101536
0.000662075517
0.000662049907
0.000662025012
0.000662001126
0.000661978507
0.000661957387
0.000661937943
0.000661920313
0.000661904582
0.00066189079
0.000661878927
0.000661868948
0.000661860776
0.000661854303
0.000661849401
0.000661845937
0.00066184376
0.000661842723
0.000661842683
0.000661843496
0.000661845032
0.000661847167
0.000661849792
0.000661852804
0.000661856113
0.000661859646
0.000661863332
0.000661867112
0.000661870942
0.000661874778
0.000661878585
0.000661882342
0.000661886022
0.000661889607
0.000661893089
0.000661896452
0.000661899688
0.000661902797
0.000661905769
0.000661907713
0.000661907608
0.000661907469
0.000661907512
0.000661907722
0.000661908073
0.000661908551
0.000661909138
0.000661909824
0.000661910591
0.000661911429
0.000661912329
0.00066191328
0.000661914273
0.000661915303
0.00066191636
0.000661917438
0.000661918535
0.000661919643
0.000661920758
0.000661921875
0.000661922995
0.00066192411
0.000661925222
0.000661926325
0.000661927418
0.000661928498
0.000661929568
0.000661930623
0.000661931662
0.000661932686
0.000661933693
0.000661934681
0.000661935653
0.000661936606
0.000661937539
0.000661938456
0.000661939352
0.000661940229
0.000661941085
0.000661941925
0.000661942745
0.000661943544
0.000661944327
0.000661945091
0.000661945835
0.000661946562
0.000661947282
0.000661947938
0.00066196184
0.000661920994
0.000661921396
0.000661909469
0.000661900768
0.000661896725
0.000661897822
0.000661903798
0.00066191371
0.000661912707
0.000661900493
0.000661891282
0.000661885786
0.000661884215
0.00066188638
0.000661891793
0.000661899797
0.000661909631
0.000661920433
0.000661931169
0.00066194059
0.000661944419
0.000661938681
0.000661936813
0.000661939684
0.000661932865
0.000661920976
0.000661908668
0.000661897666
0.000661889384
0.000661884753
0.000661884186
0.000661887629
0.000661894672
0.000661904645
0.000661916698
0.000661929838
0.00066194295
0.000661954843
0.000661964358
0.000661970534
0.000661972822
0.00066197126
0.000661966558
0.000661960031
0.000661953365
0.00066194827
0.000661946112
0.000661947628
0.000661952829
0.000661961088
0.00066197141
0.000661982743
0.000661994254
0.00066200547
0.000662016272
0.000662026782
0.000662037214
0.000662047754
0.000662058501
0.000662069467
0.000662080615
0.000662091897
0.000662103279
0.000662114755
0.000662126331
0.000662138026
0.000662149859
0.000662161841
0.000662173983
0.000662186296
0.00066219878
0.000662211436
0.000662224264
0.000662237253
0.000662250391
0.000662263664
0.000662277046
0.00066229051
0.000662304031
0.000662317568
0.000662331083
0.000662344533
0.000662357863
0.000662371017
0.000662383926
0.000662396514
0.000662390532
0.000662379654
0.000662367133
0.000662352908
0.000662336927
0.000662319165
0.000662299617
0.000662278315
0.000662255334
0.000662230789
0.000662204847
0.00066217773
0.0006621497
0.000662121069
0.000662092185
0.000662063416
0.000662035141
0.000662007734
0.000661981551
0.000661956904
0.000661934068
0.000661913252
0.000661894608
0.000661878223
0.000661864127
0.000661852291
0.000661842638
0.000661835056
0.000661829398
0.000661825496
0.000661823178
0.000661822254
0.000661822543
0.000661823871
0.000661826067
0.000661828977
0.00066183246
0.000661836391
0.000661840656
0.000661845158
0.000661849816
0.000661854555
0.000661859317
0.000661864057
0.000661868731
0.000661873307
0.000661877766
0.000661882084
0.000661886248
0.000661890255
0.000661894095
0.000661897769
0.00066190128
0.000661904087
0.000661904564
0.000661904409
0.000661904456
0.000661904677
0.000661905054
0.000661905566
0.000661906195
0.000661906925
0.000661907744
0.000661908638
0.000661909593
0.000661910605
0.000661911659
0.000661912748
0.000661913869
0.00066191501
0.000661916167
0.000661917338
0.000661918514
0.000661919694
0.000661920871
0.000661922048
0.000661923216
0.000661924378
0.000661925528
0.000661926666
0.000661927788
0.000661928898
0.000661929991
0.000661931065
0.000661932123
0.000661933162
0.00066193418
0.000661935181
0.000661936161
0.000661937119
0.00066193806
0.00066193898
0.00066193988
0.000661940758
0.000661941619
0.000661942459
0.000661943278
0.000661944081
0.000661944863
0.000661945627
0.000661946371
0.000661947109
0.000661947778
0.000661961703
0.000661920339
0.000661919407
0.000661906305
0.000661896833
0.000661892543
0.000661893928
0.000661900668
0.000661911696
0.00066191225
0.000661898678
0.000661888292
0.000661881907
0.000661879789
0.00066188177
0.000661887349
0.000661895828
0.000661906387
0.000661918087
0.000661929789
0.000661940111
0.000661942134
0.000661935632
0.000661933435
0.000661936472
0.000661931633
0.000661918348
0.000661904461
0.000661891866
0.000661882132
0.00066187631
0.00066187489
0.000661877855
0.000661884786
0.00066189498
0.000661907524
0.00066192134
0.000661935211
0.00066194783
0.000661957914
0.000661964384
0.000661966594
0.00066196454
0.00066195896
0.000661951266
0.000661943301
0.000661936954
0.000661933755
0.000661934555
0.000661939404
0.000661947646
0.000661958201
0.000661969916
0.000661981863
0.000661993505
0.000662004692
0.000662015547
0.000662026301
0.000662037157
0.000662048228
0.00066205953
0.000662071024
0.00066208266
0.000662094404
0.00066210625
0.000662118212
0.000662130313
0.000662142581
0.000662155033
0.000662167688
0.000662180563
0.000662193662
0.000662206993
0.000662220559
0.000662234353
0.000662248363
0.000662262577
0.000662276969
0.000662291514
0.000662306185
0.000662320943
0.000662335751
0.000662350569
0.000662365345
0.000662380023
0.000662394539
0.000662408816
0.000662407218
0.00066239596
0.000662382904
0.00066236796
0.000662351049
0.000662332119
0.00066231114
0.000662288124
0.000662263137
0.000662236292
0.000662207771
0.000662177822
0.000662146754
0.000662114936
0.00066208279
0.000662050764
0.000662019327
0.000661988938
0.000661960035
0.000661933
0.000661908161
0.000661885764
0.000661865979
0.000661848891
0.000661834517
0.000661822793
0.000661813603
0.000661806789
0.000661802152
0.000661799474
0.000661798532
0.000661799092
0.000661800931
0.000661803839
0.000661807615
0.00066181208
0.000661817072
0.000661822453
0.000661828097
0.000661833898
0.000661839772
0.000661845643
0.000661851452
0.000661857155
0.000661862711
0.000661868093
0.000661873285
0.000661878268
0.000661883034
0.00066188758
0.000661891901
0.000661895996
0.000661899724
0.000661900822
0.000661900696
0.000661900785
0.000661901065
0.000661901506
0.000661902091
0.000661902797
0.000661903609
0.000661904509
0.000661905488
0.000661906529
0.000661907623
0.000661908763
0.000661909937
0.000661911137
0.000661912361
0.000661913599
0.000661914846
0.0006619161
0.000661917354
0.000661918606
0.000661919851
0.000661921091
0.000661922317
0.000661923534
0.000661924735
0.000661925921
0.000661927088
0.00066192824
0.000661929372
0.000661930483
0.000661931577
0.000661932649
0.000661933698
0.00066193473
0.000661935739
0.000661936725
0.000661937692
0.000661938637
0.000661939561
0.000661940463
0.000661941346
0.000661942208
0.000661943048
0.000661943871
0.000661944672
0.000661945454
0.000661946217
0.000661946973
0.000661947657
0.000661961615
0.000661919663
0.00066191736
0.000661903056
0.000661892797
0.000661888254
0.000661889932
0.000661897448
0.000661909607
0.000661911816
0.000661896862
0.000661885278
0.000661877981
0.000661875302
0.000661877094
0.000661882843
0.000661891811
0.000661903118
0.000661915744
0.000661928442
0.000661939698
0.000661939537
0.000661932255
0.00066192972
0.000661932919
0.000661930472
0.000661915752
0.000661900238
0.000661885996
0.000661874753
0.000661867687
0.000661865369
0.000661867819
0.000661874617
0.000661885024
0.000661898065
0.000661912574
0.000661927226
0.000661940584
0.000661951228
0.000661957961
0.000661960051
0.000661957462
0.000661950966
0.000661942081
0.000661932802
0.000661925196
0.000661920954
0.00066192104
0.000661925546
0.000661933789
0.000661944605
0.000661956736
0.000661969156
0.00066198126
0.000661992868
0.0006620041
0.000662015203