/*--------------------------------*- C++ -*----------------------------------*\
| =========                 |                                                 |
| \\      /  F ield         | OpenFOAM: The Open Source CFD Toolbox           |
|  \\    /   O peration     | Version:  v2012                                 |
|   \\  /    A nd           | Website:  www.openfoam.com                      |
|    \\/     M anipulation  |                                                 |
\*---------------------------------------------------------------------------*/
FoamFile
{
    version     2.0;
    format      ascii;
    class       surfaceVectorField;
    location    "2.74";
    object      Uf;
}
// * * * * * * * * * * * * * * * * * * * * * * * * * * * * * * * * * * * * * //

dimensions      [0 1 -1 0 0 0 0];


internalField   nonuniform List<vector> 
56481
(
(0.100009001 -2.47269315e-05 0)
(0.100001737 -2.1119982e-05 0)
(0.100031646 -4.60400982e-05 0)
(0.100015891 -5.98272679e-05 0)
(0.100064545 -5.83341967e-05 0)
(0.100044222 -8.92478698e-05 0)
(0.100102484 -5.72310877e-05 0)
(0.100083004 -0.000101134574 0)
(0.100139586 -4.17744206e-05 0)
(0.100125121 -9.2013167e-05 0)
(0.100170054 -1.36703469e-05 0)
(0.100163811 -6.28618082e-05 0)
(0.100188795 2.44192006e-05 0)
(0.100193637 -1.68719115e-05 0)
(0.100198686 6.79115714e-05 0)
(0.100211778 3.80853741e-05 0)
(0.100196996 0.000110897869 0)
(0.100216864 9.68997555e-05 0)
(0.100183266 0.000148890644 0)
(0.100207967 0.000152549081 0)
(0.10015882 0.000178697147 0)
(0.100186082 0.000199553466 0)
(0.100126157 0.000198131035 0)
(0.100153701 0.000233938476 0)
(0.100088317 0.0002062271 0)
(0.100114027 0.000253542931 0)
(0.100048415 0.000203210445 0)
(0.100070511 0.000257986912 0)
(0.100009371 0.000190208022 0)
(0.100026535 0.000248286067 0)
(0.0999737522 0.00016892512 0)
(0.0999851813 0.000226338076 0)
(0.0999436851 0.000141529174 0)
(0.0999491208 0.000194578848 0)
(0.0999207248 0.000110813722 0)
(0.0999205272 0.000156078451 0)
(0.0999056176 8.04182065e-05 0)
(0.0999008786 0.000114953085 0)
(0.0998980175 5.47286726e-05 0)
(0.0998906171 7.65827719e-05 0)
(0.0998963082 3.82355902e-05 0)
(0.0998887825 4.71500773e-05 0)
(0.0998975971 3.45086398e-05 0)
(0.0998928337 3.25031039e-05 0)
(0.0998979727 4.52542366e-05 0)
(0.0998988535 3.65958815e-05 0)
(0.0998928267 6.98756419e-05 0)
(0.0999020053 6.03034568e-05 0)
(0.0998780919 0.000105632334 0)
(0.0998972834 0.000101397631 0)
(0.0998511557 0.000148219673 0)
(0.0998805617 0.000154911612 0)
(0.0998107403 0.00019259951 0)
(0.099849327 0.000214248706 0)
(0.0997570785 0.000233890199 0)
(0.0998028471 0.000272525438 0)
(0.0996916687 0.000268046649 0)
(0.0997420317 0.000323724913 0)
(0.0996168774 0.000292223028 0)
(0.0996691098 0.00036337933 0)
(0.0995355187 0.000304887525 0)
(0.0995871476 0.000388807364 0)
(0.0994505041 0.00030578578 0)
(0.0994995617 0.000399050195 0)
(0.0993646043 0.000295827017 0)
(0.0994097485 0.000394651614 0)
(0.099280302 0.000276945107 0)
(0.0993208415 0.000377416445 0)
(0.0991996755 0.000251955632 0)
(0.0992355511 0.000350228011 0)
(0.099124255 0.000224395565 0)
(0.099156015 0.000316930421 0)
(0.0990548175 0.000198296535 0)
(0.0990836 0.000282210327 0)
(0.0989911429 0.000177834924 0)
(0.0990186577 0.000251353967 0)
(0.0989318175 0.000166848504 0)
(0.0989602957 0.000229766429 0)
(0.0988742311 0.000168273184 0)
(0.0989062718 0.000222227575 0)
(0.0988148968 0.00018359468 0)
(0.0988531397 0.000231989872 0)
(0.0987500841 0.000212435237 0)
(0.0987967221 0.000259956917 0)
(0.0986765692 0.00025242576 0)
(0.0987328429 0.000304239838 0)
(0.0985922513 0.000299508622 0)
(0.0986581263 0.000360321595 0)
(0.0984964801 0.000348699049 0)
(0.09857064 0.000421889549 0)
(0.0983900465 0.000395134482 0)
(0.0984702105 0.000482169124 0)
(0.0982748726 0.000435095239 0)
(0.0983583314 0.000535388797 0)
(0.0981535005 0.000466674143 0)
(0.0982376985 0.000577933788 0)
(0.0980285215 0.000489900804 0)
(0.0981115169 0.000608843451 0)
(0.0979020995 0.000506327337 0)
(0.0979827875 0.000629539144 0)
(0.0977756983 0.000518271484 0)
(0.0978537754 0.000642943318 0)
(0.0976500505 0.000528011578 0)
(0.0977257804 0.00065235105 0)
(0.0975253252 0.00053719994 0)
(0.0975992207 0.000660458322 0)
(0.0974013933 0.000546632677 0)
(0.0974739319 0.000668829721 0)
(0.0972780821 0.000556354185 0)
(0.0973495322 0.00067787257 0)
(0.0971553394 0.000565957927 0)
(0.0972257174 0.000687182274 0)
(0.0970332873 0.000574912404 0)
(0.0971024107 0.000696020824 0)
(0.0969121878 0.000582786547 0)
(0.0969797691 0.000703710877 0)
(0.0967923703 0.000589331615 0)
(0.0968581013 0.000709832334 0)
(0.0966741646 0.000594449617 0)
(0.0967377642 0.000714227122 0)
(0.0965578631 0.000598112331 0)
(0.0966190875 0.000716893422 0)
(0.0964437127 0.000600288331 0)
(0.0965023441 0.000717863125 0)
(0.0963319268 0.000600906372 0)
(0.0963877556 0.000717122849 0)
(0.0962227017 0.000599854317 0)
(0.0962755153 0.000714592402 0)
(0.0961162301 0.000596997005 0)
(0.0961658083 0.000710142363 0)
(0.0960127076 0.00059219581 0)
(0.096058825 0.00070362359 0)
(0.0959123348 0.000585320771 0)
(0.0959547641 0.000694889706 0)
(0.0958153169 0.000576254831 0)
(0.0958538328 0.000683806755 0)
(0.0957218646 0.00056489378 0)
(0.0957562463 0.00067025363 0)
(0.0956321961 0.000551145488 0)
(0.095662228 0.000654119571 0)
(0.0955465398 0.000534930284 0)
(0.0955720123 0.000635302967 0)
(0.0954651372 0.000516182738 0)
(0.0954858476 0.00061371257 0)
(0.0953882457 0.000494854314 0)
(0.0954039989 0.000589270347 0)
(0.0953161415 0.000470916265 0)
(0.0953267509 0.000561914781 0)
(0.0952491225 0.000444362242 0)
(0.0952544103 0.000531603796 0)
(0.0951875119 0.000415210227 0)
(0.0951873087 0.00049831689 0)
(0.0951316656 0.00038350328 0)
(0.0951258065 0.000462056181 0)
(0.0950819834 0.000349306901 0)
(0.0950702999 0.000422845189 0)
(0.0950389433 0.000312699261 0)
(0.0950212288 0.000380719304 0)
(0.0950031908 0.000273732132 0)
(0.0949791047 0.000335696655 0)
(0.0949751993 0.000232403196 0)
(0.0949444392 0.000287657355 0)
(0.094955301 0.000188666331 0)
(0.0949176283 0.000236528279 0)
(0.0949437024 0.00014248137 0)
(0.0948989532 0.000182475549 0)
(0.0949404189 9.39003896e-05 0)
(0.0948886356 0.00012567324 0)
(0.0949450644 4.32057555e-05 0)
(0.094886921 6.65478719e-05 0)
(0.094956159 -8.21510049e-06 0)
(0.0948939361 6.2879313e-06 0)
(0.0949783941 -5.9397316e-05 0)
(0.0949102299 -5.70099091e-05 0)
(0.0950121665 -0.000111046637 0)
(0.0949373156 -0.000120105771 0)
(0.0950573757 -0.000163649281 0)
(0.094976098 -0.000184337313 0)
(0.0951139739 -0.000217018803 0)
(0.0950264557 -0.000249572773 0)
(0.0951819341 -0.000270833659 0)
(0.0950884157 -0.000315446993 0)
(0.0952612279 -0.000324756046 0)
(0.0951621177 -0.000381609736 0)
(0.095351762 -0.000378387157 0)
(0.0952475623 -0.000447612483 0)
(0.095453355 -0.000431281161 0)
(0.0953446356 -0.000512923668 0)
(0.0955657253 -0.000482967265 0)
(0.0954531372 -0.000576970001 0)
(0.0956884792 -0.000532954533 0)
(0.0955727519 -0.000639146588 0)
(0.0958211051 -0.000580736141 0)
(0.0957030341 -0.00069882396 0)
(0.0959629739 -0.000625799576 0)
(0.0958434086 -0.000755362387 0)
(0.0961133443 -0.000667640852 0)
(0.0959931726 -0.000808129052 0)
(0.0962713704 -0.000705781347 0)
(0.0961515009 -0.000856516733 0)
(0.0964361123 -0.000739785486 0)
(0.0963174544 -0.000899963651 0)
(0.0966065478 -0.000769276993 0)
(0.0964899921 -0.000937972739 0)
(0.0967815865 -0.000793952087 0)
(0.0966679855 -0.000970128659 0)
(0.096960086 -0.000813588644 0)
(0.096850236 -0.000996111399 0)
(0.0971408708 -0.000828051348 0)
(0.0970354959 -0.00101570582 0)
(0.0973227524 -0.000837293229 0)
(0.0972224907 -0.00102880695 0)
(0.0975045515 -0.000841354276 0)
(0.0974099442 -0.00103542118 0)
(0.0976851195 -0.00084035757 0)
(0.0975966031 -0.00103566356 0)
(0.0978633589 -0.000834503292 0)
(0.0977812614 -0.0010297516 0)
(0.0980382414 -0.000824060834 0)
(0.0979627819 -0.00101799598 0)
(0.0982088242 -0.000809359234 0)
(0.0981401154 -0.00100078865 0)
(0.098374261 -0.000790776313 0)
(0.0983123157 -0.000978588946 0)
(0.0985338113 -0.000768726948 0)
(0.0984785506 -0.000951908472 0)
(0.098686845 -0.000743651003 0)
(0.0986381087 -0.000921295378 0)
(0.0988328448 -0.000716001525 0)
(0.098790403 -0.000887318858 0)
(0.0989714044 -0.000686233592 0)
(0.0989349699 -0.000850554452 0)
(0.0991022257 -0.000654794235 0)
(0.099071466 -0.000811570636 0)
(0.0992251123 -0.000622113748 0)
(0.0991996622 -0.000770917122 0)
(0.099339962 -0.000588598391 0)
(0.0993194348 -0.000729115077 0)
(0.099446759 -0.000554624474 0)
(0.0994307567 -0.000686649264 0)
(0.0995455635 -0.000520533916 0)
(0.0995336861 -0.000643962142 0)
(0.0996365031 -0.000486631272 0)
(0.0996283565 -0.000601449914 0)
(0.099719763 -0.000453182327 0)
(0.0997149653 -0.000559460361 0)
(0.0997955767 -0.000420414087 0)
(0.099793763 -0.000518292115 0)
(0.0998642166 -0.000388515891 0)
(0.0998650437 -0.000478195279 0)
(0.0999259845 -0.000357640148 0)
(0.0999291347 -0.000439373086 0)
(0.0999812046 -0.00032790201 0)
(0.099986388 -0.000401983778 0)
(0.100030219 -0.000299380252 0)
(0.100037173 -0.000366143283 0)
(0.100073387 -0.000272122171 0)
(0.100081874 -0.000331929622 0)
(0.100111081 -0.000246151329 0)
(0.100120884 -0.000299388188 0)
(0.100143677 -0.000221472548 0)
(0.100154602 -0.000268536524 0)
(0.10017155 -0.000198071624 0)
(0.100183425 -0.000239368693 0)
(0.100195073 -0.000175916225 0)
(0.100207745 -0.000211860202 0)
(0.100214619 -0.000154963692 0)
(0.100227946 -0.000185972489 0)
(0.100230559 -0.000135170902 0)
(0.100244399 -0.000161657259 0)
(0.100243251 -0.000116497998 0)
(0.100257468 -0.000138863091 0)
(0.100253042 -9.8907427e-05 0)
(0.100267503 -0.000117541172 0)
(0.100260266 -8.23668986e-05 0)
(0.100274836 -9.76468615e-05 0)
(0.100265246 -6.68580212e-05 0)
(0.100279781 -7.91408114e-05 0)
(0.100268283 -5.23850852e-05 0)
(0.100282625 -6.19953589e-05 0)
(0.100269642 -3.89817648e-05 0)
(0.100283624 -4.61991763e-05 0)
(0.100269534 -2.67125786e-05 0)
(0.10028299 -3.17434775e-05 0)
(0.100268056 -1.56546823e-05 0)
(0.100280893 -1.85929469e-05 0)
(0.100265145 -5.81360569e-06 0)
(0.100277438 -6.66850599e-06 0)
(0.100260794 2.97358691e-06 0)
(0.100272673 3.94864423e-06 0)
(0.1002555 1.08527695e-05 0)
(0.100266792 1.36171664e-05 0)
(0.100249228 1.78561717e-05 0)
(0.100260018 2.22515714e-05 0)
(0.100242055 2.40441401e-05 0)
(0.100252412 2.98802349e-05 0)
(0.100234065 2.95023312e-05 0)
(0.100244026 3.66042653e-05 0)
(0.100225353 3.43092063e-05 0)
(0.100234947 4.25129924e-05 0)
(0.100216017 3.85325536e-05 0)
(0.10022527 4.76855891e-05 0)
(0.100206151 4.22329263e-05 0)
(0.100215085 5.21954389e-05 0)
(0.100195845 4.54644231e-05 0)
(0.100204475 5.6109627e-05 0)
(0.10018518 4.8274602e-05 0)
(0.100193518 5.94882108e-05 0)
(0.100174233 5.07047581e-05 0)
(0.100182288 6.23843382e-05 0)
(0.100163073 5.27904328e-05 0)
(0.10017085 6.48447918e-05 0)
(0.100151761 5.45620418e-05 0)
(0.100159264 6.69106188e-05 0)
(0.100140353 5.60456728e-05 0)
(0.100147585 6.86178092e-05 0)
(0.100128894 5.72640341e-05 0)
(0.10013586 6.99980748e-05 0)
(0.100117427 5.82374201e-05 0)
(0.100124129 7.10796672e-05 0)
(0.100105985 5.89845289e-05 0)
(0.100112428 7.18881357e-05 0)
(0.100094599 5.952303e-05 0)
(0.100100789 7.24469327e-05 0)
(0.100083294 5.98698629e-05 0)
(0.100089236 7.27778311e-05 0)
(0.100072092 6.0041334e-05 0)
(0.100077793 7.29011691e-05 0)
(0.100061012 6.00530919e-05 0)
(0.10006648 7.28359892e-05 0)
(0.100050071 5.99200486e-05 0)
(0.100055314 7.26001045e-05 0)
(0.100039284 5.96562786e-05 0)
(0.100044309 7.22101294e-05 0)
(0.100028665 5.92749156e-05 0)
(0.100033478 7.16814832e-05 0)
(0.100018224 5.87880547e-05 0)
(0.100022834 7.10283774e-05 0)
(0.100007973 5.82066765e-05 0)
(0.100012385 7.02637999e-05 0)
(0.099997921 5.75406009e-05 0)
(0.100002142 6.93995075e-05 0)
(0.0999880764 5.67984871e-05 0)
(0.0999921109 6.84460385e-05 0)
(0.0999784461 5.59878807e-05 0)
(0.0999822993 6.74127532e-05 0)
(0.0999690363 5.51153108e-05 0)
(0.0999727125 6.63079058e-05 0)
(0.0999598518 5.4186426e-05 0)
(0.0999633551 6.51387448e-05 0)
(0.0999508964 5.32061528e-05 0)
(0.0999542307 6.39116332e-05 0)
(0.0999421733 5.21788556e-05 0)
(0.0999453423 6.26321755e-05 0)
(0.0999336848 5.110848e-05 0)
(0.0999366918 6.13053369e-05 0)
(0.0999254326 4.99986609e-05 0)
(0.0999282809 5.99355424e-05 0)
(0.099917418 4.88527849e-05 0)
(0.0999201107 5.85267409e-05 0)
(0.0999096424 4.76739963e-05 0)
(0.0999121822 5.70824299e-05 0)
(0.0999021069 4.64651692e-05 0)
(0.0999044959 5.56056155e-05 0)
(0.0998948134 4.52287046e-05 0)
(0.0998970535 5.40987781e-05 0)
(0.0998877642 4.39667622e-05 0)
(0.0998898535 5.2563403e-05 0)
(0.0998809627 4.26788618e-05 0)
(0.0998829081 5.10010192e-05 0)
(0.0998744148 4.1370629e-05 0)
(0.0998761833 4.94060934e-05 0)
(0.0998681267 4.0009286e-05 0)
(0.0998698119 4.77944518e-05 0)
(0.0998621243 3.8711623e-05 0)
(0.0998633586 4.60656603e-05 0)
(0.099856393 3.68972476e-05 0)
(0.0998584361 4.45918295e-05 0)
(0.0998499092 4.16124733e-05 0)
(0.10000671 -5.20608779e-05 0)
(0.100001602 -2.88461842e-05 0)
(0.100028758 -9.71500769e-05 0)
(0.100015225 -8.5216299e-05 0)
(0.100063534 -0.00012532783 0)
(0.100043548 -0.000129293545 0)
(0.100105819 -0.000129202533 0)
(0.100083427 -0.000149825677 0)
(0.100149281 -0.000107180111 0)
(0.100127675 -0.000142060049 0)
(0.100187658 -6.21397944e-05 0)
(0.10016937 -0.000107054493 0)
(0.100216283 4.26371487e-07 0)
(0.10020321 -4.9833166e-05 0)
(0.100229875 7.23521776e-05 0)
(0.10022477 2.2433662e-05 0)
(0.100227835 0.00014418693 0)
(0.100231064 9.92489527e-05 0)
(0.100210859 0.000208157067 0)
(0.100221773 0.000172096667 0)
(0.100181144 0.000258683014 0)
(0.100198477 0.000233770778 0)
(0.100141827 0.000292258403 0)
(0.100163872 0.000279212975 0)
(0.100096531 0.000307471414 0)
(0.100121388 0.000305702553 0)
(0.100048991 0.000304754978 0)
(0.100074736 0.000312729728 0)
(0.100002753 0.000285862763 0)
(0.100027566 0.000301529138 0)
(0.0999609994 0.000253364242 0)
(0.099983244 0.000274418261 0)
(0.0999264442 0.000210518808 0)
(0.0999447188 0.000234369674 0)
(0.0999011832 0.000161617674 0)
(0.0999144273 0.00018516695 0)
(0.09988639 0.000112412773 0)
(0.0998940841 0.000131987674 0)
(0.0998818941 7.00209688e-05 0)
(0.0998843108 8.17598447e-05 0)
(0.099885818 4.19531865e-05 0)
(0.099884228 4.26316619e-05 0)
(0.0998946076 3.44634313e-05 0)
(0.0998912217 2.23817165e-05 0)
(0.0999035145 5.07763256e-05 0)
(0.0999010064 2.63394781e-05 0)
(0.099907118 9.00823862e-05 0)
(0.0999081937 5.61539851e-05 0)
(0.0999003429 0.00014782508 0)
(0.0999073659 0.00010919925 0)
(0.0998793587 0.000216827224 0)
(0.0998940588 0.000179075163 0)
(0.0998421203 0.000288762463 0)
(0.0998653707 0.000257129376 0)
(0.0997885298 0.000355681937 0)
(0.099820271 0.00033423566 0)
(0.099720235 0.000411181293 0)
(0.099759563 0.000402367413 0)
(0.0996401684 0.000450978086 0)
(0.0996855497 0.000455577181 0)
(0.0995519964 0.000472977991 0)
(0.0996015301 0.000490338795 0)
(0.0994596195 0.000477032591 0)
(0.0995112762 0.000505423623 0)
(0.0993667969 0.000464597195 0)
(0.0994186036 0.000501538185 0)
(0.0992768913 0.000438447461 0)
(0.0993270635 0.00048094409 0)
(0.0991926746 0.00040251593 0)
(0.0992397295 0.000447204776 0)
(0.0991161268 0.000361799798 0)
(0.0991590143 0.000405076362 0)
(0.0990481973 0.000322201186 0)
(0.0990864577 0.000360432149 0)
(0.0989885664 0.000290130896 0)
(0.0990224811 0.000320019951 0)
(0.0989355023 0.000271773796 0)
(0.0989661632 0.000290870476 0)
(0.098885916 0.000272065436 0)
(0.0989151382 0.000279326961 0)
(0.0988356678 0.000293606173 0)
(0.0988657415 0.000289851386 0)
(0.0987801369 0.000335854809 0)
(0.0988134728 0.000323901636 0)
(0.0987149969 0.00039493518 0)
(0.0987537253 0.000379249475 0)
(0.098637041 0.000464244873 0)
(0.098682624 0.000450088977 0)
(0.0985448158 0.000535800608 0)
(0.098597764 0.000528088349 0)
(0.098438854 0.000601975885 0)
(0.0984986469 0.000604185669 0)
(0.0983214263 0.000657115309 0)
(0.0983866782 0.000670608513 0)
(0.0981958937 0.000698535973 0)
(0.0982647219 0.000722486483 0)
(0.0980658718 0.000726641763 0)
(0.0981363467 0.000758565667 0)
(0.0979344633 0.000744192433 0)
(0.0980049988 0.000780858028 0)
(0.0978037697 0.000755057001 0)
(0.0978733447 0.000793438914 0)
(0.0976747769 0.000762923871 0)
(0.0977429519 0.000800888262 0)
(0.09754757 0.000770386843 0)
(0.0976143414 0.000806938943 0)
(0.0974217328 0.000778617155 0)
(0.0974873113 0.000813733121 0)
(0.0972967534 0.000787575103 0)
(0.0973613621 0.000821788279 0)
(0.0971723035 0.000796528299 0)
(0.097236054 0.000830488155 0)
(0.0970483424 0.00080459438 0)
(0.0971112028 0.000838763913 0)
(0.0969250745 0.000811104539 0)
(0.0969869034 0.000845655677 0)
(0.0968028365 0.000815723238 0)
(0.096863442 0.000850591262 0)
(0.0966819855 0.000818380034 0)
(0.0967411751 0.000853388915 0)
(0.096562832 0.000819123553 0)
(0.0966204371 0.000854100418 0)
(0.0964456238 0.000817993818 0)
(0.0965015008 0.000852830164 0)
(0.0963305622 0.000814958796 0)
(0.0963845808 0.000849617979 0)
(0.096217829 0.000809911818 0)
(0.0962698596 0.000844406435 0)
(0.0961076064 0.000802701052 0)
(0.0961575127 0.000837065333 0)
(0.0960000875 0.000793162003 0)
(0.0960477241 0.000827433216 0)
(0.0958954775 0.000781137382 0)
(0.0959406911 0.000815349648 0)
(0.0957939928 0.000766482964 0)
(0.0958366243 0.000800667975 0)
(0.0956958601 0.000749065855 0)
(0.0957357456 0.00078325487 0)
(0.0956013184 0.000728761894 0)
(0.0956382889 0.000762985808 0)
(0.095510621 0.00070545547 0)
(0.0955445018 0.000739742384 0)
(0.0954240389 0.000679041774 0)
(0.0954546495 0.000713413073 0)
(0.0953418637 0.000649430179 0)
(0.0953690166 0.000683896377 0)
(0.0952644094 0.000616547452 0)
(0.0952879103 0.000651104575 0)
(0.0951920152 0.000580339966 0)
(0.095211662 0.000614966803 0)
(0.0951250478 0.00054077464 0)
(0.0951406293 0.000575430842 0)
(0.0950639047 0.000497838212 0)
(0.0950751984 0.000532463387 0)
(0.0950090178 0.000451532541 0)
(0.0950157859 0.000486048257 0)
(0.0949608537 0.000401862658 0)
(0.0949628383 0.000436181042 0)
(0.0949198926 0.000348796927 0)
(0.0949168268 0.000382863902 0)
(0.0948865129 0.000292258249 0)
(0.0948782126 0.000326094654 0)
(0.0948609972 0.000232182115 0)
(0.0948474078 0.000265909932 0)
(0.0948436549 0.000168604156 0)
(0.0948248112 0.000202445506 0)
(0.0948349297 0.000101742972 0)
(0.0948108547 0.000135720487 0)
(0.0948356118 3.19901668e-05 0)
(0.0948059683 6.57623608e-05 0)
(0.0948474823 -3.97764403e-05 0)
(0.0948107885 -7.38106303e-06 0)
(0.0948686488 -0.00011270953 0)
(0.0948257813 -8.13835501e-05 0)
(0.0949010076 -0.000186831978 0)
(0.0948514518 -0.000157367362 0)
(0.094944871 -0.000262267253 0)
(0.0948886094 -0.000234846698 0)
(0.0950005583 -0.00033868369 0)
(0.0949376876 -0.000313697514 0)
(0.0950682968 -0.00041561713 0)
(0.0949988938 -0.00039344889 0)
(0.0951481695 -0.000492573324 0)
(0.0950724198 -0.000473584418 0)
(0.0952401622 -0.000568978587 0)
(0.0951583651 -0.000553543417 0)
(0.0953441599 -0.000644184725 0)
(0.0952567032 -0.000632678557 0)
(0.0954599261 -0.000717495135 0)
(0.0953672892 -0.000710276576 0)
(0.0955870916 -0.000788180429 0)
(0.0954898475 -0.000785579559 0)
(0.0957251485 -0.000855494099 0)
(0.0956239565 -0.000857798595 0)
(0.0958734485 -0.000918692359 0)
(0.0957690436 -0.000926131962 0)
(0.0960312044 -0.000977055127 0)
(0.0959243848 -0.000989787323 0)
(0.0961974971 -0.00102990722 0)
(0.096089107 -0.00104800538 0)
(0.0963712861 -0.00107663918 0)
(0.0962621969 -0.00110008425 0)
(0.0965514231 -0.0011167267 0)
(0.0964425131 -0.00114540314 0)
(0.0967366705 -0.00114974765 0)
(0.0966288047 -0.00118344385 0)
(0.0969257233 -0.00117539565 0)
(0.0968197332 -0.00121380857 0)
(0.0971172338 -0.00119348959 0)
(0.0970138988 -0.00123623299 0)
(0.0973098384 -0.00120397835 0)
(0.0972098698 -0.00125059413 0)
(0.0975021862 -0.00120694077 0)
(0.0974062131 -0.00125691254 0)
(0.0976929657 -0.00120258078 0)
(0.097601525 -0.00125534898 0)
(0.0978809306 -0.00119121806 0)
(0.0977944604 -0.00124619603 0)
(0.0980649223 -0.0011732752 0)
(0.0979837587 -0.00122986526 0)
(0.0982438884 -0.00114926186 0)
(0.0981682662 -0.00120687079 0)
(0.0984168965 -0.00111975715 0)
(0.0983469531 -0.00117781037 0)
(0.0985831439 -0.00108539099 0)
(0.0985189261 -0.00114334486 0)
(0.0987419626 -0.00104682546 0)
(0.0986834353 -0.00110417743 0)
(0.0988928197 -0.00100473692 0)
(0.0988398764 -0.00106103315 0)
(0.0990353152 -0.000959799439 0)
(0.0989877888 -0.00101464013 0)
(0.0991691752 -0.000912670116 0)
(0.0991268498 -0.000965712426 0)
(0.0992942439 -0.000863976665 0)
(0.0992568656 -0.000914935591 0)
(0.0994104731 -0.000814307257 0)
(0.0993777604 -0.000862954763 0)
(0.0995179108 -0.000764202694 0)
(0.0994895641 -0.000810365425 0)
(0.099616689 -0.000714150994 0)
(0.0995923986 -0.000757706746 0)
(0.0997070113 -0.000664584096 0)
(0.0996864647 -0.000705457401 0)
(0.0997891408 -0.000615876491 0)
(0.0997720288 -0.000654033687 0)
(0.0998633887 -0.000568345368 0)
(0.09984941 -0.000603789652 0)
(0.099930104 -0.000522252177 0)
(0.099918969 -0.000555018966 0)
(0.0999896646 -0.000477804788 0)
(0.0999810967 -0.00050795802 0)
(0.100042469 -0.000435159882 0)
(0.100036206 -0.000462789065 0)
(0.10008893 -0.000394426602 0)
(0.100084722 -0.00041964313 0)
(0.100129464 -0.00035567222 0)
(0.100127079 -0.000378605021 0)
(0.100164491 -0.000318928836 0)
(0.100163711 -0.000339722313 0)
(0.100194429 -0.00028420028 0)
(0.100195049 -0.00030301091 0)
(0.100219691 -0.000251468374 0)
(0.100221517 -0.000268458894 0)
(0.10024068 -0.000220697258 0)
(0.100243527 -0.000236029226 0)
(0.10025778 -0.000191836728 0)
(0.100261479 -0.000205663464 0)
(0.100271358 -0.00016482809 0)
(0.100275756 -0.000177292493 0)
(0.100281767 -0.000139613613 0)
(0.100286719 -0.000150849265 0)
(0.100289343 -0.000116141103 0)
(0.100294711 -0.000126265236 0)
(0.100294398 -9.43607772e-05 0)
(0.100300063 -0.000103466687 0)
(0.100297209 -7.42263165e-05 0)
(0.100303083 -8.23780972e-05 0)
(0.100298019 -5.56983238e-05 0)
(0.100304051 -6.29278103e-05 0)
(0.100297028 -3.87367149e-05 0)
(0.100303224 -4.5058502e-05 0)
(0.100294409 -2.32919893e-05 0)
(0.100300824 -2.87279706e-05 0)
(0.100290337 -9.30140874e-06 0)
(0.100297039 -1.39033001e-05 0)
(0.100284991 3.32473384e-06 0)
(0.100292004 -5.13377935e-07 0)
(0.1002786 1.47111415e-05 0)
(0.100285806 1.13089555e-05 0)
(0.100271312 2.4935433e-05 0)
(0.100278583 2.20085172e-05 0)
(0.10026322 3.40247257e-05 0)
(0.100270498 3.15700588e-05 0)
(0.100254392 4.20455437e-05 0)
(0.100261659 4.00455087e-05 0)
(0.100244916 4.90936125e-05 0)
(0.10025215 4.75165599e-05 0)
(0.100234876 5.52620557e-05 0)
(0.100242056 5.40741704e-05 0)
(0.100224353 6.06350528e-05 0)
(0.100231461 5.98026421e-05 0)
(0.100213425 6.52896357e-05 0)
(0.100220447 6.47789971e-05 0)
(0.100202166 6.92963285e-05 0)
(0.100209089 6.9074796e-05 0)
(0.100190644 7.27188067e-05 0)
(0.100197459 7.27558446e-05 0)
(0.100178923 7.56139849e-05 0)
(0.100185619 7.58815869e-05 0)
(0.10016706 7.8032588e-05 0)
(0.100173632 7.85052552e-05 0)
(0.100155107 8.00198095e-05 0)
(0.100161549 8.06743721e-05 0)
(0.100143111 8.16159535e-05 0)
(0.100149419 8.24313256e-05 0)
(0.100131113 8.28570812e-05 0)
(0.100137284 8.38140172e-05 0)
(0.100119149 8.37756399e-05 0)
(0.100125181 8.48565365e-05 0)
(0.10010725 8.44010253e-05 0)
(0.100113143 8.55897894e-05 0)
(0.100095444 8.47600505e-05 0)
(0.100101196 8.60420286e-05 0)
(0.100083754 8.48773091e-05 0)
(0.100089365 8.62392587e-05 0)
(0.1000722 8.47754497e-05 0)
(0.100077669 8.62055157e-05 0)
(0.1000608 8.44753792e-05 0)
(0.100066128 8.59630557e-05 0)
(0.100049569 8.39964115e-05 0)
(0.100054755 8.55324765e-05 0)
(0.100038521 8.3356371e-05 0)
(0.100043564 8.49327977e-05 0)
(0.100027665 8.25716607e-05 0)
(0.100032567 8.41815105e-05 0)
(0.100017013 8.16573109e-05 0)
(0.100021773 8.32946163e-05 0)
(0.100006572 8.0627018e-05 0)
(0.100011191 8.22866609e-05 0)
(0.0999963499 7.94931853e-05 0)
(0.100000828 8.11707772e-05 0)
(0.099986352 7.82669744e-05 0)
(0.0999906907 7.99587406e-05 0)
(0.0999765838 7.69583692e-05 0)
(0.0999807841 7.86610424e-05 0)
(0.0999670493 7.55762531e-05 0)
(0.0999711127 7.72869791e-05 0)
(0.099957752 7.41285e-05 0)
(0.0999616797 7.58447579e-05 0)
(0.0999486944 7.26220685e-05 0)
(0.0999524878 7.4341609e-05 0)
(0.0999398784 7.10630937e-05 0)
(0.099943539 7.27838979e-05 0)
(0.0999313054 6.9456971e-05 0)
(0.0999348343 7.11772279e-05 0)
(0.0999229764 6.78084176e-05 0)
(0.0999263747 6.95265229e-05 0)
(0.099914892 6.61215075e-05 0)
(0.0999181606 6.78360805e-05 0)
(0.0999070526 6.439966e-05 0)
(0.099910192 6.61095926e-05 0)
(0.0998994587 6.26456156e-05 0)
(0.0999024687 6.43501023e-05 0)
(0.0998921108 6.08611648e-05 0)
(0.0998949917 6.25600136e-05 0)
(0.0998850096 5.90476037e-05 0)
(0.0998877579 6.074055e-05 0)
(0.0998781557 5.72022043e-05 0)
(0.0998807782 5.88934535e-05 0)
(0.0998715504 5.53318421e-05 0)
(0.0998740154 5.7012164e-05 0)
(0.0998651882 5.33889024e-05 0)
(0.0998676016 5.51205508e-05 0)
(0.0998590763 5.1545311e-05 0)
(0.0998610878 5.31036992e-05 0)
(0.0998531197 4.9016527e-05 0)
(0.0998561132 5.14508907e-05 0)
(0.0998474439 4.81286183e-05 0)
(0.100007857 -6.46659917e-05 0)
(0.100001697 -3.78931644e-05 0)
(0.10003011 -0.000121336149 0)
(0.100015735 -0.00011084199 0)
(0.10006438 -0.000158421028 0)
(0.100044539 -0.000168755148 0)
(0.100105568 -0.000167310661 0)
(0.100085098 -0.000197255089 0)
(0.100147642 -0.000146064283 0)
(0.100130365 -0.000190508284 0)
(0.100184732 -9.78804198e-05 0)
(0.100173296 -0.000149764795 0)
(0.100211912 -2.98872376e-05 0)
(0.100208055 -8.11305122e-05 0)
(0.10022599 4.85466993e-05 0)
(0.10023018 6.22188007e-06 0)
(0.100225031 0.00012798427 0)
(0.100237207 0.000100354002 0)
(0.100209491 0.000199868193 0)
(0.100228509 0.000189990427 0)
(0.100181368 0.000257408781 0)
(0.100205211 0.000266155497 0)
(0.10014366 0.000296361458 0)
(0.100170081 0.000322634232 0)
(0.100099872 0.000314965993 0)
(0.10012667 0.000356124569 0)
(0.100053639 0.000313564662 0)
(0.100078828 0.000365968067 0)
(0.100008432 0.000293996815 0)
(0.100030382 0.000353585641 0)
(0.0999673793 0.000259021496 0)
(0.099984891 0.00032169115 0)
(0.0999331494 0.000212177485 0)
(0.0999454868 0.000273785963 0)
(0.0999077972 0.000158187165 0)
(0.0999147547 0.000214360454 0)
(0.0998924872 0.000103466935 0)
(0.0998945027 0.000149617314 0)
(0.0998871393 5.60359814e-05 0)
(0.0998853741 8.79180886e-05 0)
(0.099890149 2.43949787e-05 0)
(0.0998864135 3.91658802e-05 0)
(0.099898199 1.55641832e-05 0)
(0.0998947712 1.31120292e-05 0)
(0.0999063022 3.33736102e-05 0)
(0.0999061118 1.70085481e-05 0)
(0.0999090559 7.75510743e-05 0)
(0.0999152359 5.29830523e-05 0)
(0.0999017111 0.000143496819 0)
(0.0999165879 0.000117656895 0)
(0.0998807281 0.000223223449 0)
(0.0999053373 0.000203237352 0)
(0.0998442152 0.00030719501 0)
(0.0998783378 0.000299174534 0)
(0.0997920348 0.000386166937 0)
(0.0998344249 0.000394322232 0)
(0.0997256415 0.000452556899 0)
(0.099774339 0.000478820281 0)
(0.099647703 0.000501178902 0)
(0.0997003842 0.000545324615 0)
(0.0995616229 0.000529390383 0)
(0.0996159264 0.000589461292 0)
(0.0994710885 0.000536842469 0)
(0.0995248666 0.000609675389 0)
(0.0993797071 0.000525072706 0)
(0.0994311963 0.000606765259 0)
(0.0992907413 0.000497146859 0)
(0.099338666 0.000583389509 0)
(0.099206906 0.000457452487 0)
(0.0992505441 0.000543742418 0)
(0.099130174 0.000411606205 0)
(0.099169407 0.000493434456 0)
(0.0990615589 0.000366311438 0)
(0.0990969084 0.000439443496 0)
(0.0990008806 0.00032895078 0)
(0.0990335178 0.000389891897 0)
(0.0989465795 0.00030677278 0)
(0.0989782926 0.000353398982 0)
(0.0988957118 0.000305716341 0)
(0.0989287896 0.000337901928 0)
(0.0988442528 0.000329114649 0)
(0.0988812205 0.000349107233 0)
(0.0987877167 0.000376671534 0)
(0.0988309181 0.000389003763 0)
(0.0987219472 0.000444131605 0)
(0.0987730807 0.00045498404 0)
(0.0986438722 0.000523901368 0)
(0.0987036363 0.000539993608 0)
(0.0985520442 0.000606571481 0)
(0.0986200042 0.000633829647 0)
(0.0984468393 0.000682966927 0)
(0.0985215519 0.000725330675 0)
(0.0983302569 0.00074613232 0)
(0.0984096135 0.000804854914 0)
(0.098205369 0.000792643534 0)
(0.098287056 0.000866296826 0)
(0.0980755757 0.000822858493 0)
(0.098157523 0.000908024666 0)
(0.097943888 0.000840101312 0)
(0.098024589 0.000932498435 0)
(0.0978124399 0.000849153097 0)
(0.0978910725 0.000944803336 0)
(0.097682336 0.000854634466 0)
(0.0977586848 0.000950704934 0)
(0.0975538117 0.000859825423 0)
(0.0976280566 0.00095493664 0)
(0.0974265833 0.000866215831 0)
(0.0974990488 0.000960238494 0)
(0.0973002247 0.000873750401 0)
(0.0973711792 0.000967292158 0)
(0.0971744408 0.000881481937 0)
(0.097243992 0.000975330195 0)
(0.0970491839 0.000888270665 0)
(0.0971172694 0.000982999201 0)
(0.0969246311 0.000893260378 0)
(0.0969910705 0.000989080141 0)
(0.0968010889 0.000896039727 0)
(0.0968656517 0.000992851892 0)
(0.0966788918 0.000896555863 0)
(0.0967413486 0.000994100794 0)
(0.0965583364 0.000894922287 0)
(0.0966184818 0.000992921818 0)
(0.0964396625 0.000891248003 0)
(0.0964973135 0.000989484891 0)
(0.0963230659 0.000885550387 0)
(0.0963780496 0.000983880742 0)
(0.0962087224 0.000877749052 0)
(0.096260863 0.000976074748 0)
(0.0960968085 0.000867703181 0)
(0.0961459199 0.000965935829 0)
(0.0959875122 0.000855253638 0)
(0.0960333963 0.000953289581 0)
(0.0958810354 0.000840248537 0)
(0.0959234838 0.000937959308 0)
(0.0957775934 0.000822550118 0)
(0.0958163893 0.000919783069 0)
(0.095677414 0.000802031221 0)
(0.0957123342 0.000898612949 0)
(0.0955807391 0.000778570393 0)
(0.0956115547 0.000874308387 0)
(0.0954878271 0.000752050234 0)
(0.0955143043 0.000846731956 0)
(0.0953989558 0.000722359216 0)
(0.0954208568 0.00081574984 0)
(0.0953144245 0.000689395317 0)
(0.0953315086 0.000781235427 0)
(0.0952345566 0.000653069778 0)
(0.0952465815 0.000743073588 0)
(0.0951597012 0.000613309908 0)
(0.0951664239 0.000701164042 0)
(0.095090234 0.000570060598 0)
(0.0950914121 0.000655423283 0)
(0.0950265598 0.000523284396 0)
(0.0950219508 0.000605785276 0)
(0.0949691112 0.00047295952 0)
(0.0949584731 0.000552201176 0)
(0.0949183457 0.000419076357 0)
(0.0949014381 0.000494638244 0)
(0.0948747376 0.000361634453 0)
(0.0948513262 0.000433079335 0)