/*--------------------------------*- C++ -*----------------------------------*\
| =========                 |                                                 |
| \\      /  F ield         | OpenFOAM: The Open Source CFD Toolbox           |
|  \\    /   O peration     | Version:  v2012                                 |
|   \\  /    A nd           | Website:  www.openfoam.com                      |
|    \\/     M anipulation  |                                                 |
\*---------------------------------------------------------------------------*/
FoamFile
{
    version     2.0;
    format      ascii;
    class       volVectorField;
    location    "2.39";
    object      H;
}
// * * * * * * * * * * * * * * * * * * * * * * * * * * * * * * * * * * * * * //

dimensions      [0 1 -2 0 0 0 0];


internalField   nonuniform List<vector> 
28416
(
(152.35596 0.0206600476 0)
(152.328442 0.0682035495 0)
(152.277489 0.118730913 0)
(152.201572 0.16643926 0)
(152.105735 0.206014404 0)
(151.995299 0.233362154 0)
(151.875511 0.24597229 0)
(151.751922 0.243430135 0)
(151.630047 0.227199506 0)
(151.514792 0.199569621 0)
(151.410354 0.162885137 0)
(151.320379 0.119900392 0)
(151.247887 0.0747918564 0)
(151.194793 0.033547919 0)
(151.161402 0.00288114311 0)
(151.142278 -0.0123219235 0)
(151.128047 -0.00830745087 0)
(151.111667 0.0161894715 0)
(151.08615 0.0588037582 0)
(151.044482 0.114272811 0)
(150.983533 0.176517227 0)
(150.905276 0.238297936 0)
(150.813165 0.292417879 0)
(150.710754 0.333417034 0)
(150.602293 0.357995236 0)
(150.492592 0.364797456 0)
(150.38632 0.354245907 0)
(150.287663 0.328388778 0)
(150.200232 0.29069843 0)
(150.126906 0.245889758 0)
(150.069515 0.199750378 0)
(150.028468 0.158842787 0)
(150.002453 0.129916714 0)
(149.988451 0.118974533 0)
(149.981661 0.13001939 0)
(149.976104 0.164221896 0)
(149.96595 0.219273566 0)
(149.946495 0.289522371 0)
(149.914885 0.367071211 0)
(149.870511 0.44351989 0)
(149.814887 0.511826082 0)
(149.751018 0.567726047 0)
(149.682462 0.610284412 0)
(149.612396 0.641453598 0)
(149.542961 0.664886421 0)
(149.475033 0.684498322 0)
(149.408402 0.703305554 0)
(149.34221 0.722872291 0)
(149.275417 0.743396935 0)
(149.207154 0.76421273 0)
(149.136867 0.784378971 0)
(149.064299 0.803106741 0)
(148.989374 0.819921441 0)
(148.912089 0.83461224 0)
(148.83245 0.847089419 0)
(148.750455 0.857258214 0)
(148.666119 0.864960243 0)
(148.579504 0.869977538 0)
(148.490734 0.872066767 0)
(148.400011 0.870993029 0)
(148.307605 0.866548794 0)
(148.213854 0.858558588 0)
(148.119159 0.84687664 0)
(148.023979 0.831383844 0)
(147.928829 0.811986797 0)
(147.834271 0.788618776 0)
(147.740911 0.761241705 0)
(147.649393 0.729848581 0)
(147.56039 0.69446626 0)
(147.474596 0.655158487 0)
(147.392731 0.612028676 0)
(147.315529 0.565221459 0)
(147.243746 0.5149218 0)
(147.178158 0.461351703 0)
(147.11956 0.404761107 0)
(147.068776 0.345418222 0)
(147.026657 0.283577954 0)
(146.994017 0.219449145 0)
(146.971533 0.153227976 0)
(146.959548 0.0851530698 0)
(146.957911 0.0158168799 0)
(146.969935 -0.053396116 0)
(146.996119 -0.123107715 0)
(147.035896 -0.193414398 0)
(147.089105 -0.263894199 0)
(147.155947 -0.334103707 0)
(147.236487 -0.403613466 0)
(147.330595 -0.471956149 0)
(147.438031 -0.53863896 0)
(147.55843 -0.603155695 0)
(147.691277 -0.664984661 0)
(147.835918 -0.72359207 0)
(147.991575 -0.77844438 0)
(148.157351 -0.829025871 0)
(148.332248 -0.874858938 0)
(148.515179 -0.91552393 0)
(148.704977 -0.95067515 0)
(148.900411 -0.980051265 0)
(149.100201 -1.00348017 0)
(149.303036 -1.02087957 0)
(149.507592 -1.03225494 0)
(149.712558 -1.03769577 0)
(149.916654 -1.03737067 0)
(150.118655 -1.0315212 0)
(150.317402 -1.02045435 0)
(150.511824 -1.00453359 0)
(150.700947 -0.984168784 0)
(150.883901 -0.959805334 0)
(151.059931 -0.931912978 0)
(151.228393 -0.900974816 0)
(151.388759 -0.867476892 0)
(151.540612 -0.831898757 0)
(151.683642 -0.794705094 0)
(151.817638 -0.75633838 0)
(151.942474 -0.717211726 0)
(152.058094 -0.677701547 0)
(152.164501 -0.638131691 0)
(152.261824 -0.598765601 0)
(152.350329 -0.559842147 0)
(152.430335 -0.521585017 0)
(152.50218 -0.484193907 0)
(152.566219 -0.447839611 0)
(152.622823 -0.412663266 0)
(152.672367 -0.378775081 0)
(152.715233 -0.346247312 0)
(152.751816 -0.315118794 0)
(152.782524 -0.285408284 0)
(152.807772 -0.257120993 0)
(152.82797 -0.230250797 0)
(152.843519 -0.204781892 0)
(152.854811 -0.180690377 0)
(152.862219 -0.157944716 0)
(152.866099 -0.136502298 0)
(152.866785 -0.116305398 0)
(152.864599 -0.0972790162 0)
(152.859863 -0.0793325834 0)
(152.852929 -0.0623730522 0)
(152.8442 -0.0463408804 0)
(152.834151 -0.0312706464 0)
(152.823313 -0.0174486656 0)
(152.811977 -0.00528462535 0)
(152.799842 0.00506814006 0)
(152.786232 0.0138388151 0)
(152.77085 0.0214443302 0)
(152.754004 0.0281812467 0)
(152.736084 0.0341884877 0)
(152.71733 0.0395526351 0)
(152.697895 0.0443549338 0)
(152.677931 0.0486646689 0)
(152.657581 0.0525344703 0)
(152.636973 0.0560034959 0)
(152.616218 0.0590990265 0)
(152.595415 0.0618383519 0)
(152.574646 0.0642332594 0)
(152.553973 0.0662944989 0)
(152.533446 0.0680343461 0)
(152.513107 0.0694676503 0)
(152.492988 0.0706120074 0)
(152.47312 0.0714873165 0)
(152.453528 0.0721149481 0)
(152.434236 0.0725168058 0)
(152.415266 0.0727144611 0)
(152.396641 0.0727284289 0)
(152.378378 0.0725775964 0)
(152.360497 0.0722788515 0)
(152.343016 0.0718469303 0)
(152.325948 0.0712944608 0)
(152.309307 0.0706321459 0)
(152.293103 0.0698690467 0)
(152.277345 0.0690129239 0)
(152.26204 0.0680706027 0)
(152.247192 0.0670483176 0)
(152.232805 0.0659519969 0)
(152.21888 0.0647874675 0)
(152.205419 0.0635605723 0)
(152.192422 0.0622771991 0)
(152.179889 0.0609432391 0)
(152.16782 0.0595644961 0)
(152.156216 0.0581465602 0)
(152.145076 0.0566946769 0)
(152.134401 0.0552136364 0)
(152.124191 0.0537076815 0)
(152.114451 0.0521804943 0)
(152.105176 0.0506348956 0)
(152.096383 0.0490737447 0)
(152.088039 0.0474949737 0)
(152.080281 0.0459123387 0)
(152.072676 0.0442544127 0)
(152.066892 0.0428202937 0)
(152.054715 0.0401255167 0)
(152.359333 0.042550536 0)
(152.337306 0.138301282 0)
(152.291683 0.236626353 0)
(152.218139 0.327435617 0)
(152.12132 0.402187647 0)
(152.007218 0.454363331 0)
(151.881846 0.480126618 0)
(151.751532 0.479115183 0)
(151.622665 0.453920664 0)
(151.501083 0.408271038 0)
(151.39189 0.345795841 0)
(151.299541 0.270703121 0)
(151.227521 0.189564365 0)
(151.177363 0.112209753 0)
(151.147297 0.050445722 0)
(151.131429 0.0148730352 0)
(151.12326 0.0143538913 0)
(151.116081 0.0506344538 0)
(151.101293 0.118208085 0)
(151.070972 0.206734082 0)
(151.019821 0.304716952 0)
(150.94644 0.400014911 0)
(150.853164 0.481544317 0)
(150.744644 0.541264676 0)
(150.626709 0.574673539 0)
(150.505718 0.580320309 0)
(150.38794 0.559243388 0)
(150.27908 0.514554244 0)
(150.184024 0.451183995 0)
(150.106643 0.375831039 0)
(150.049471 0.296978593 0)
(150.013287 0.224653279 0)
(149.996703 0.16958691 0)
(149.995962 0.141657422 0)
(150.005074 0.147740678 0)
(150.016475 0.190022193 0)
(150.022254 0.264896897 0)
(150.015621 0.363285966 0)
(149.992212 0.472497089 0)
(149.950831 0.579111303 0)
(149.893415 0.672044193 0)
(149.824225 0.744839829 0)
(149.74852 0.796499017 0)
(149.671126 0.830675465 0)
(149.595376 0.853666993 0)
(149.522673 0.87203113 0)
(149.452715 0.890691885 0)
(149.384152 0.912078388 0)
(149.315333 0.936331268 0)
(149.244886 0.962187638 0)
(149.171956 0.987994453 0)
(149.09618 1.01242054 0)
(149.0175 1.03471055 0)
(148.935967 1.05457579 0)
(148.851627 1.07193432 0)
(148.764492 1.08668718 0)
(148.674574 1.09861611 0)
(148.581931 1.1073911 0)
(148.486701 1.11263002 0)
(148.38911 1.11395675 0)
(148.289468 1.11103312 0)
(148.188164 1.10356633 0)
(148.085651 1.09130479 0)
(147.982444 1.07403353 0)
(147.879117 1.05157386 0)
(147.776293 1.0237863 0)
(147.674642 0.990574385 0)
(147.574875 0.95188743 0)
(147.477733 0.907721605 0)
(147.383987 0.858119568 0)
(147.294431 0.803169081 0)
(147.209875 0.743000939 0)
(147.131143 0.677786151 0)
(147.059066 0.607732716 0)
(146.994482 0.533080517 0)
(146.93821 0.454096042 0)
(146.891035 0.371057864 0)
(146.853706 0.284244803 0)
(146.826943 0.193978925 0)
(146.811605 0.100719912 0)
(146.809033 0.0051267466 0)
(146.821149 -0.0920412671 0)
(146.846553 -0.190417951 0)
(146.886015 -0.289723265 0)
(146.939892 -0.389361058 0)
(147.008345 -0.488699217 0)
(147.091457 -0.587091406 0)
(147.189172 -0.683827745 0)
(147.301286 -0.778150256 0)
(147.427444 -0.869277207 0)
(147.567131 -0.956415557 0)
(147.719672 -1.0387766 0)
(147.884245 -1.11559609 0)
(148.059883 -1.18615418 0)
(148.245488 -1.24979465 0)
(148.439849 -1.30594285 0)
(148.641651 -1.35412175 0)
(148.849501 -1.39396511 0)
(149.061944 -1.42522737 0)
(149.27749 -1.44778961 0)
(149.494641 -1.46166143 0)
(149.711916 -1.46697867 0)
(149.927877 -1.46399705 0)
(150.141154 -1.45308246 0)
(150.350466 -1.43469839 0)
(150.554636 -1.40939121 0)
(150.752607 -1.37777407 0)
(150.94345 -1.34051011 0)
(151.126371 -1.29829554 0)
(151.300711 -1.2518433 0)
(151.465944 -1.20186773 0)
(151.621677 -1.14907067 0)
(151.767636 -1.09412903 0)
(151.903662 -1.03768384 0)
(152.0297 -0.980329789 0)
(152.145785 -0.922605041 0)
(152.252043 -0.864973651 0)
(152.348692 -0.807819637 0)
(152.436033 -0.751489941 0)
(152.514421 -0.6963048 0)
(152.584247 -0.642545933 0)
(152.645925 -0.59045031 0)
(152.699892 -0.540209759 0)
(152.746598 -0.491970802 0)
(152.786502 -0.445831696 0)
(152.820058 -0.401848119 0)
(152.84771 -0.360045202 0)
(152.869902 -0.320425051 0)
(152.887064 -0.282970541 0)
(152.899618 -0.247648044 0)
(152.907972 -0.214409935 0)
(152.912523 -0.183197205 0)
(152.913656 -0.153943644 0)
(152.911745 -0.126576397 0)
(152.907149 -0.101015463 0)
(152.90021 -0.0771782644 0)
(152.891241 -0.0549921719 0)
(152.880495 -0.0344171382 0)
(152.868042 -0.0154880744 0)
(152.854077 0.00184792332 0)
(152.838993 0.0173542513 0)
(152.823084 0.030831497 0)
(152.806345 0.0423881672 0)
(152.788659 0.0523913305 0)
(152.770009 0.0611692639 0)
(152.750543 0.0688976905 0)
(152.730433 0.0756823116 0)
(152.709814 0.0816207083 0)
(152.688801 0.0868004713 0)
(152.667506 0.091295185 0)
(152.646029 0.0951698512 0)
(152.624456 0.0984818751 0)
(152.602871 0.101279763 0)
(152.581346 0.103604469 0)
(152.559944 0.105491749 0)
(152.538719 0.106973606 0)
(152.517718 0.108079193 0)
(152.496978 0.108835739 0)
(152.476536 0.109269369 0)
(152.456417 0.109405521 0)
(152.436648 0.10926896 0)
(152.417247 0.108883574 0)
(152.398235 0.108272153 0)
(152.379625 0.107456169 0)
(152.361433 0.106455583 0)
(152.343671 0.105288703 0)
(152.326351 0.103972139 0)
(152.309479 0.102520848 0)
(152.293066 0.100948231 0)
(152.277116 0.0992662881 0)
(152.261635 0.0974857848 0)
(152.246626 0.0956164363 0)
(152.232092 0.0936670753 0)
(152.218034 0.091645798 0)
(152.204453 0.0895600838 0)
(152.191349 0.0874168749 0)
(152.178722 0.0852226225 0)
(152.166572 0.0829833055 0)
(152.154897 0.0807044217 0)
(152.143698 0.0783909572 0)
(152.132973 0.0760473408 0)
(152.122722 0.0736773652 0)
(152.112948 0.071284157 0)
(152.103645 0.0688697407 0)
(152.094827 0.0664360885 0)
(152.086456 0.0639786181 0)
(152.078669 0.0615140219 0)
(152.071002 0.0589423501 0)
(152.065155 0.0566978149 0)
(152.052601 0.0526411726 0)
(152.358883 0.0512266938 0)
(152.334639 0.166387954 0)
(152.287304 0.283404684 0)
(152.213436 0.390993962 0)
(152.117384 0.479884011 0)
(152.004637 0.542638716 0)
(151.880843 0.574717205 0)
(151.752036 0.575579214 0)
(151.624346 0.548055616 0)
(151.503379 0.496196164 0)
(151.393992 0.423856825 0)
(151.300339 0.335544612 0)
(151.22569 0.23860655 0)
(151.171818 0.144499763 0)
(151.138293 0.0676336638 0)
(151.121543 0.0220660826 0)
(151.113988 0.0177057624 0)
(151.105685 0.0564024877 0)
(151.087698 0.132679927 0)
(151.053888 0.2348676 0)
(151.000868 0.348034124 0)
(150.927903 0.457451866 0)
(150.83688 0.550587643 0)
(150.731622 0.618271021 0)
(150.617235 0.655210279 0)
(150.499528 0.659731777 0)
(150.384409 0.633116974 0)
(150.277408 0.578976422 0)
(150.183372 0.502885879 0)
(150.106211 0.412329972 0)
(150.048565 0.316775458 0)
(150.011378 0.227478796 0)
(149.993491 0.156610657 0)
(149.991398 0.115533827 0)
(149.999369 0.112512945 0)
(150.010129 0.150595345 0)
(150.016095 0.226329193 0)
(150.010754 0.329876866 0)
(149.989783 0.446867195 0)
(149.951739 0.561639466 0)
(149.898104 0.66091178 0)
(149.832617 0.736697179 0)
(149.760103 0.787531572 0)
(149.685145 0.817691434 0)
(149.611044 0.834837591 0)
(149.539343 0.847084608 0)
(149.469953 0.860600676 0)
(149.401723 0.878464759 0)
(149.333129 0.900872714 0)
(149.262826 0.926228565 0)
(149.189925 0.952428511 0)
(149.113988 0.977779883 0)
(149.034883 1.00133862 0)
(148.952608 1.02277494 0)
(148.867177 1.04203663 0)
(148.778592 1.05905342 0)
(148.686862 1.07359793 0)
(148.59205 1.08529133 0)
(148.494301 1.09367933 0)
(148.393853 1.09830805 0)
(148.291034 1.0987661 0)
(148.186255 1.09469429 0)
(148.08 1.0857797 0)
(147.972822 1.07174888 0)
(147.865331 1.05236641 0)
(147.758196 1.02743788 0)
(147.65213 0.996813995 0)
(147.547887 0.960393958 0)
(147.446252 0.918127298 0)
(147.34803 0.870014758 0)
(147.254048 0.816108476 0)
(147.165144 0.756511225 0)
(147.082168 0.691374353 0)
(147.005978 0.620894162 0)
(146.937439 0.545308544 0)
(146.877417 0.464892061 0)
(146.826777 0.379963257 0)
(146.786387 0.29089736 0)
(146.757125 0.198123667 0)
(146.739667 0.102111517 0)
(146.734081 0.00326337698 0)
(146.743493 -0.098193683 0)
(146.767329 -0.2016102 0)
(146.805698 -0.306434404 0)
(146.858918 -0.41209076 0)
(146.927284 -0.517889646 0)
(147.01096 -0.623074676 0)
(147.109934 -0.726835206 0)
(147.224041 -0.828312422 0)
(147.352955 -0.926613413 0)
(147.496176 -1.0208249 0)
(147.653031 -1.1100296 0)
(147.822677 -1.19332776 0)
(148.004105 -1.26986208 0)
(148.196151 -1.338844 0)
(148.397512 -1.39957931 0)
(148.606767 -1.4514907 0)
(148.822396 -1.4941355 0)
(149.042813 -1.52721759 0)
(149.266392 -1.55059354 0)
(149.4915 -1.56427343 0)
(149.716527 -1.56841685 0)
(149.939917 -1.56332455 0)
(150.160193 -1.54942622 0)
(150.375982 -1.52726509 0)
(150.586033 -1.49747982 0)
(150.789233 -1.46078473 0)
(150.984616 -1.41794919 0)
(151.171367 -1.369777 0)
(151.348827 -1.31708665 0)
(151.516483 -1.26069305 0)
(151.673968 -1.20139108 0)
(151.82105 -1.13994138 0)
(151.957619 -1.0770582 0)
(152.083677 -1.01339936 0)
(152.199326 -0.94955847 0)
(152.304757 -0.886059628 0)
(152.400243 -0.823358114 0)
(152.486131 -0.761850188 0)
(152.562819 -0.701877756 0)
(152.630749 -0.643727701 0)
(152.690382 -0.587632584 0)
(152.742198 -0.53377371 0)
(152.786682 -0.482285429 0)
(152.824324 -0.433262482 0)
(152.855604 -0.386763348 0)
(152.880993 -0.342811253 0)
(152.900956 -0.30139888 0)
(152.915946 -0.262494196 0)
(152.926398 -0.226045666 0)
(152.932733 -0.191987171 0)
(152.935346 -0.160243385 0)
(152.934609 -0.130737643 0)
(152.930871 -0.10339712 0)
(152.924465 -0.0781555366 0)
(152.915704 -0.0549551464 0)
(152.904891 -0.0337321404 0)
(152.892302 -0.01439092 0)
(152.878518 0.00322428354 0)
(152.863925 0.0192644382 0)
(152.848293 0.0338581674 0)
(152.831588 0.0470165914 0)
(152.81387 0.0586967107 0)
(152.795198 0.0689491113 0)
(152.775651 0.0779256785 0)
(152.755363 0.0857771915 0)
(152.734481 0.0926194545 0)
(152.713138 0.0985545505 0)
(152.691454 0.10367602 0)
(152.66955 0.108063369 0)
(152.647532 0.111782492 0)
(152.625492 0.114889171 0)
(152.603512 0.11743195 0)
(152.581656 0.119454458 0)
(152.559976 0.120997354 0)
(152.538516 0.122099476 0)
(152.517312 0.122798113 0)
(152.496392 0.123128809 0)
(152.475785 0.123125139 0)
(152.455514 0.12281859 0)
(152.435602 0.12223852 0)
(152.416068 0.121412117 0)
(152.396931 0.120364351 0)
(152.378207 0.119117936 0)
(152.35991 0.117693364 0)
(152.342054 0.116108986 0)
(152.32465 0.114381141 0)
(152.307707 0.112524324 0)
(152.291231 0.1105514 0)
(152.275228 0.10847383 0)
(152.259703 0.106301909 0)
(152.244658 0.104044987 0)
(152.230093 0.101711656 0)
(152.21601 0.0993098906 0)
(152.202408 0.0968471403 0)
(152.189287 0.0943303681 0)
(152.176644 0.091766053 0)
(152.164479 0.0891601696 0)
(152.152791 0.0865181469 0)
(152.141579 0.0838448148 0)
(152.130842 0.0811443434 0)
(152.120579 0.0784201618 0)
(152.11079 0.0756749316 0)
(152.101473 0.0729101538 0)
(152.092637 0.0701273215 0)
(152.084246 0.0673213911 0)
(152.076432 0.0645112569 0)
(152.068743 0.0615902124 0)
(152.062869 0.059048435 0)
(152.050445 0.0545217059 0)
(152.359358 0.0647172181 0)
(152.337095 0.211822184 0)
(152.291764 0.362682461 0)
(152.218848 0.5021612 0)
(152.122184 0.617905205 0)
(152.007233 0.700154415 0)
(151.879912 0.742910524 0)
(151.746714 0.745291207 0)
(151.614358 0.71079791 0)
(151.489111 0.644616652 0)
(151.376497 0.551791866 0)
(151.281298 0.438234583 0)
(151.207242 0.313479942 0)
(151.156097 0.192268328 0)
(151.126445 0.0929267401 0)
(151.112996 0.0328196672 0)
(151.108521 0.0238853126 0)
(151.105449 0.069383036 0)
(151.094927 0.162913303 0)
(151.068158 0.290409557 0)
(151.019612 0.433284831 0)
(150.947921 0.572376187 0)
(150.855033 0.691156947 0)
(150.745349 0.777663053 0)
(150.624845 0.825070982 0)
(150.50026 0.831229837 0)
(150.378404 0.797728185 0)
(150.265655 0.729038925 0)
(150.167591 0.632055216 0)
(150.08868 0.51606858 0)
(150.031892 0.392932624 0)
(149.998231 0.27688453 0)
(149.986288 0.183476065 0)
(149.992032 0.127401136 0)
(150.009093 0.119549722 0)
(150.029526 0.164084339 0)
(150.044899 0.256624643 0)
(150.047712 0.384551943 0)
(150.032878 0.529526487 0)
(149.998652 0.671643708 0)
(149.946672 0.794071877 0)
(149.881164 0.886720162 0)
(149.807583 0.947769129 0)
(149.731117 0.98267098 0)
(149.655519 1.00117251 0)
(149.582569 1.0136125 0)
(149.512218 1.02787931 0)
(149.443208 1.04794788 0)
(149.37384 1.07412174 0)
(149.302587 1.10440357 0)
(149.22841 1.13612268 0)
(149.15077 1.16711036 0)
(149.069471 1.19614198 0)
(148.984472 1.22277819 0)
(148.895762 1.24694267 0)
(148.803322 1.26854596 0)
(148.707151 1.2873043 0)
(148.607307 1.30274204 0)
(148.503944 1.3142851 0)
(148.397318 1.32135638 0)
(148.287789 1.32342963 0)
(148.175807 1.32004272 0)
(148.061905 1.31079085 0)
(147.946687 1.29531875 0)
(147.830823 1.27331949 0)
(147.715039 1.24453895 0)
(147.600114 1.20878144 0)
(147.486869 1.16591344 0)
(147.376163 1.11586414 0)
(147.268879 1.05862343 0)
(147.165928 0.994238436 0)
(147.068231 0.922809487 0)
(146.976717 0.844486345 0)
(146.892318 0.759465091 0)
(146.815957 0.667985903 0)
(146.748548 0.570332067 0)
(146.690989 0.466828085 0)
(146.644155 0.357836964 0)
(146.608881 0.243750859 0)
(146.586029 0.124985379 0)
(146.576723 0.00214120148 0)
(146.583876 -0.123750396 0)
(146.605719 -0.252263564 0)
(146.642979 -0.382706648 0)
(146.69614 -0.514255369 0)
(146.765554 -0.646011919 0)
(146.851441 -0.777015098 0)
(146.953865 -0.906229129 0)
(147.07272 -1.03255178 0)
(147.20771 -1.15483645 0)
(147.358339 -1.27191561 0)
(147.523905 -1.38262605 0)
(147.7035 -1.4858374 0)
(147.896018 -1.58048164 0)
(148.100164 -1.66558217 0)
(148.314479 -1.7402816 0)
(148.53736 -1.80386714 0)
(148.76709 -1.8557922 0)
(149.001876 -1.89569289 0)
(149.239876 -1.9233981 0)
(149.479245 -1.93893264 0)
(149.718169 -1.94251324 0)
(149.954902 -1.93453784 0)
(150.187797 -1.91556918 0)
(150.415334 -1.88631374 0)
(150.636144 -1.84759744 0)
(150.849021 -1.80033923 0)
(151.052939 -1.74552408 0)
(151.247049 -1.68417622 0)
(151.430683 -1.61733384 0)
(151.603346 -1.54602592 0)
(151.76471 -1.47125182 0)
(151.914596 -1.3939639 0)
(152.052965 -1.31505335 0)
(152.179904 -1.23533921 0)
(152.295603 -1.15556068 0)
(152.400349 -1.07637239 0)
(152.494507 -0.998343629 0)
(152.578512 -0.921962793 0)
(152.652843 -0.847643272 0)
(152.718019 -0.775727501 0)
(152.774577 -0.706490442 0)
(152.823065 -0.640144122 0)
(152.864034 -0.576843118 0)
(152.898032 -0.516690512 0)
(152.925596 -0.459742906 0)
(152.947245 -0.406015662 0)
(152.963487 -0.35548951 0)
(152.974804 -0.308117174 0)
(152.981655 -0.263828937 0)
(152.984478 -0.222537061 0)
(152.98368 -0.184138677 0)
(152.979644 -0.148515277 0)
(152.97273 -0.115533039 0)
(152.963279 -0.0850447919 0)
(152.951631 -0.0569031099 0)
(152.938143 -0.0309844193 0)
(152.923244 -0.00732433842 0)
(152.907233 0.0142312003 0)
(152.889998 0.0336531058 0)
(152.871655 0.0510099479 0)
(152.852376 0.0664152932 0)
(152.832278 0.0800001241 0)
(152.811468 0.091915501 0)
(152.790042 0.102330692 0)
(152.768108 0.111408074 0)
(152.745779 0.119284592 0)
(152.723166 0.126078126 0)
(152.700359 0.131894605 0)
(152.677436 0.136828986 0)
(152.65447 0.140966233 0)
(152.631528 0.144381457 0)
(152.60868 0.147139245 0)
(152.585989 0.149294652 0)
(152.563511 0.150895786 0)
(152.541298 0.151986262 0)
(152.519393 0.152606665 0)
(152.49783 0.152795394 0)
(152.476638 0.152589175 0)
(152.455842 0.152023158 0)
(152.435459 0.151130733 0)
(152.415505 0.149943311 0)
(152.395994 0.148490178 0)
(152.376937 0.146798401 0)
(152.358342 0.144892823 0)
(152.340217 0.142796101 0)
(152.322569 0.140528795 0)
(152.305402 0.138109476 0)
(152.288721 0.135554874 0)
(152.272529 0.13288002 0)
(152.256828 0.130098397 0)
(152.241621 0.127222089 0)
(152.226907 0.124261926 0)
(152.212688 0.121227623 0)
(152.198962 0.118127912 0)
(152.185729 0.11497065 0)
(152.172987 0.111762908 0)
(152.160735 0.108511027 0)
(152.148971 0.105220646 0)
(152.137693 0.10189671 0)
(152.126898 0.0985434532 0)
(152.116585 0.0951643615 0)
(152.106752 0.0917621949 0)
(152.097394 0.0883385803 0)
(152.08852 0.0848954968 0)
(152.08009 0.081427585 0)
(152.072239 0.0779590927 0)
(152.06449 0.0743631999 0)
(152.058574 0.0712382425 0)
(152.045868 0.0657082695 0)
(152.359438 0.0768521229 0)
(152.337199 0.251743606 0)
(152.291751 0.4308087 0)
(152.218597 0.596296217 0)
(152.12161 0.734001963 0)
(152.006278 0.832718656 0)
(151.878497 0.885494794 0)
(151.74469 0.891143742 0)
(151.611503 0.853440404 0)
(151.485165 0.77809997 0)
(151.371156 0.670721898 0)
(151.274161 0.53794065 0)
(151.19779 0.390573001 0)
(151.143822 0.245555963 0)
(151.111282 0.124374099 0)
(151.096319 0.0483831358 0)
(151.091866 0.0329546501 0)
(151.088255 0.0822258638 0)
(151.076283 0.187962557 0)
(151.048802 0.333098806 0)
(151.00094 0.496101258 0)
(150.930846 0.654900615 0)
(150.839912 0.790438765 0)
(150.732117 0.888853826 0)
(150.613155 0.942142573 0)
(150.489607 0.947669703 0)
(150.368236 0.907111226 0)
(150.25547 0.82543915 0)
(150.157015 0.71037001 0)
(150.077528 0.572371072 0)
(150.020213 0.424914598 0)
(149.986341 0.284349873 0)
(149.974802 0.168737395 0)
(149.981861 0.0953545527 0)
(150.001221 0.0772111042 0)
(150.02465 0.119635521 0)
(150.043423 0.218177898 0)
(150.049978 0.358656275 0)
(150.039158 0.51987589 0)
(150.009002 0.678468943 0)
(149.960879 0.814417301 0)
(149.898801 0.915525 0)
(149.82813 0.97940369 0)
(149.754077 1.01242244 0)
(149.680494 1.02622201 0)
(149.609269 1.03327555 0)
(149.540427 1.0431808 0)
(149.472721 1.06083121 0)
(149.404408 1.08665679 0)
(149.333892 1.1182601 0)
(149.260052 1.1523934 0)
(149.182281 1.18640418 0)
(149.100328 1.21879155 0)
(149.014108 1.24902309 0)
(148.923581 1.27702101 0)
(148.828707 1.302698 0)
(148.729472 1.32572978 0)
(148.625931 1.34555411 0)
(148.518245 1.36148398 0)
(148.406692 1.37282492 0)
(148.291664 1.37894226 0)
(148.173656 1.37927806 0)
(148.053254 1.37334298 0)
(147.931127 1.36070602 0)
(147.808015 1.34099205 0)
(147.684725 1.31388566 0)
(147.562114 1.27913671 0)
(147.44108 1.23656378 0)
(147.322553 1.18605491 0)
(147.207477 1.12756624 0)
(147.096807 1.0611197 0)
(146.991506 0.986799992 0)
(146.892536 0.904751011 0)
(146.800866 0.815171882 0)
(146.717464 0.718313326 0)
(146.643295 0.614474969 0)
(146.57932 0.504005268 0)
(146.526489 0.387307214 0)
(146.485739 0.264847098 0)
(146.457962 0.137161033 0)
(146.4439 0.00480244709 0)
(146.44701 -0.131780105 0)
(146.465855 -0.271789073 0)
(146.500978 -0.414451636 0)
(146.552959 -0.558890839 0)
(146.622263 -0.704111018 0)
(146.709208 -0.849009546 0)
(146.81394 -0.992388192 0)
(146.936416 -1.13296539 0)
(147.076385 -1.26939486 0)
(147.233371 -1.40028979 0)
(147.406663 -1.52425267 0)
(147.595313 -1.63991094 0)
(147.798133 -1.74595662 0)
(148.013711 -1.84118697 0)
(148.240428 -1.92454359 0)
(148.476491 -1.99514709 0)
(148.719966 -2.05232535 0)
(148.968822 -2.09563379 0)
(149.220974 -2.12486695 0)
(149.474334 -2.14006112 0)
(149.726856 -2.14148824 0)
(149.97658 -2.12964156 0)
(150.221669 -2.10521416 0)
(150.460444 -2.0690717 0)
(150.69141 -2.02222105 0)
(150.913268 -1.96577652 0)
(151.124933 -1.90092541 0)
(151.325534 -1.82889456 0)
(151.514407 -1.75091898 0)
(151.691089 -1.66821366 0)
(151.855308 -1.58194935 0)
(152.006961 -1.49323248 0)
(152.146096 -1.40308935 0)
(152.272899 -1.31245481 0)
(152.387666 -1.22216484 0)
(152.490789 -1.13295311 0)
(152.582739 -1.04545144 0)
(152.664045 -0.960193766 0)
(152.735281 -0.877622041 0)
(152.797049 -0.798092264 0)
(152.849966 -0.721880746 0)
(152.89465 -0.649191015 0)
(152.931717 -0.580161214 0)
(152.961767 -0.514871625 0)
(152.985386 -0.453351895 0)
(153.003132 -0.395587992 0)
(153.015544 -0.341529112 0)
(153.023131 -0.291094447 0)
(153.026376 -0.244179598 0)
(153.025737 -0.200662609 0)
(153.021647 -0.160409606 0)
(153.01451 -0.123280481 0)
(153.00471 -0.0891359582 0)
(152.992594 -0.0578427786 0)
(152.97845 -0.0292597414 0)
(152.962391 -0.00314293836 0)
(152.944994 0.0206792497 0)
(152.92658 0.0421740177 0)
(152.907181 0.0614577182 0)
(152.88689 0.0786861008 0)
(152.865808 0.0939845057 0)
(152.844041 0.107484284 0)
(152.82169 0.119318608 0)
(152.79885 0.129622516 0)
(152.775614 0.138531959 0)
(152.752079 0.146172194 0)
(152.728341 0.152655329 0)
(152.704496 0.158084012 0)
(152.680637 0.162553804 0)
(152.656848 0.166154424 0)
(152.6332 0.168969888 0)
(152.609748 0.171077864 0)
(152.58654 0.172549148 0)
(152.563613 0.173447339 0)
(152.541004 0.173828888 0)
(152.518741 0.17374378 0)
(152.496849 0.173236628 0)
(152.475354 0.172347703 0)
(152.454274 0.171113659 0)
(152.433629 0.169568029 0)
(152.413431 0.167741616 0)
(152.393697 0.165662783 0)
(152.374435 0.163357635 0)
(152.355656 0.160850118 0)
(152.337368 0.158162076 0)
(152.319578 0.155313339 0)
(152.302288 0.152321826 0)
(152.285503 0.1492037 0)
(152.269226 0.145973515 0)
(152.253454 0.14264439 0)
(152.238189 0.139228167 0)
(152.22343 0.135735559 0)
(152.209173 0.132176267 0)
(152.195416 0.128559073 0)
(152.182158 0.124891896 0)
(152.169393 0.12118183 0)
(152.157121 0.117435163 0)
(152.145339 0.113657391 0)
(152.134043 0.109853225 0)
(152.123231 0.106026603 0)
(152.1129 0.102180663 0)
(152.103049 0.0983178076 0)
(152.093673 0.0944393504 0)
(152.084779 0.0905470946 0)
(152.076328 0.0866354901 0)
(152.068451 0.0827308668 0)
(152.060689 0.0786968568 0)
(152.054748 0.0751919257 0)
(152.042201 0.0690390344 0)
(152.359551 0.0890219487 0)
(152.337517 0.292471853 0)
(152.292182 0.50148968 0)
(152.218825 0.69539604 0)
(152.121031 0.857470436 0)
(152.00411 0.974288867 0)
(151.873998 1.03735367 0)
(151.737355 1.04495722 0)
(151.601162 1.00128726 0)
(151.471986 0.912920423 0)
(151.35564 0.786407978 0)
(151.257119 0.629623601 0)
(151.180295 0.455448495 0)
(151.127099 0.283990214 0)
(151.096581 0.140636376 0)
(151.08423 0.0503528792 0)
(151.082433 0.0302929017 0)
(151.081744 0.0854100499 0)
(151.072619 0.20767135 0)
(151.047158 0.37763666 0)
(151.000139 0.569571462 0)
(150.929682 0.757117375 0)
(150.837238 0.917569422 0)
(150.726955 1.03440951 0)
(150.604816 1.09807072 0)
(150.477786 1.10533982 0)
(150.353069 1.05809603 0)
(150.237538 0.96209931 0)
(150.137294 0.82633202 0)
(150.057278 0.663009436 0)
(150.000847 0.487892282 0)
(149.969278 0.320151252 0)
(149.961295 0.181003691 0)
(149.972803 0.0907897144 0)
(149.997194 0.0649573215 0)
(150.026255 0.110140018 0)
(150.051172 0.221216531 0)
(150.063872 0.381747407 0)
(150.058671 0.567067108 0)
(150.03332 0.749856496 0)
(149.989102 0.906599431 0)
(149.930087 1.02285457 0)
(149.861782 1.09563951 0)
(149.789584 1.13226746 0)
(149.717525 1.1463144 0)
(149.647633 1.15243235 0)
(149.580002 1.16198096 0)
(149.513385 1.18083675 0)
(149.445975 1.20962675 0)
(149.376073 1.24561551 0)
(149.30244 1.28501725 0)
(149.224354 1.32470483 0)
(149.141469 1.36288377 0)
(149.053629 1.39889532 0)
(148.960739 1.43262202 0)
(148.862721 1.46394295 0)
(148.759537 1.49246249 0)
(148.651233 1.51750464 0)
(148.537978 1.53824361 0)
(148.420071 1.55384159 0)
(148.297941 1.56352886 0)
(148.172133 1.56662508 0)
(148.043295 1.56253091 0)
(147.912162 1.55071687 0)
(147.779549 1.53072135 0)
(147.646337 1.50215628 0)
(147.513459 1.46471436 0)
(147.381896 1.41817336 0)
(147.252661 1.36239574 0)
(147.126793 1.29732466 0)
(147.005347 1.22297777 0)
(146.889386 1.13944016 0)
(146.779969 1.04685754 0)
(146.678149 0.945430603 0)
(146.584965 0.835411038 0)
(146.501443 0.717099693 0)
(146.428604 0.59084747 0)
(146.367456 0.4570574 0)
(146.318994 0.316188288 0)
(146.284199 0.168763798 0)
(146.264127 0.015415514 0)
(146.262419 -0.143085633 0)
(146.277542 -0.305938124 0)
(146.310046 -0.472199929 0)
(146.360653 -0.640825473 0)
(146.429969 -0.810634986 0)
(146.518447 -0.980317585 0)
(146.626356 -1.14843831 0)
(146.753758 -1.31345074 0)
(146.900468 -1.47372147 0)
(147.066036 -1.62756354 0)
(147.249728 -1.77327581 0)
(147.45052 -1.90918738 0)
(147.667101 -2.03370518 0)
(147.897882 -2.14536286 0)
(148.14103 -2.24286818 0)
(148.394494 -2.32514656 0)
(148.656055 -2.39137781 0)
(148.923377 -2.44102365 0)
(149.194062 -2.4738437 0)
(149.465711 -2.48989948 0)
(149.735982 -2.48954625 0)
(150.002641 -2.47341362 0)
(150.263614 -2.44237677 0)
(150.51702 -2.39752034 0)
(150.761206 -2.34009743 0)
(150.994763 -2.2714859 0)
(151.216538 -2.19314461 0)
(151.425632 -2.10657123 0)
(151.621395 -2.0132635 0)
(151.803412 -1.91468491 0)
(151.971482 -1.81223587 0)
(152.1256 -1.70723046 0)
(152.265928 -1.60087883 0)
(152.392775 -1.49427519 0)
(152.50657 -1.38839086 0)
(152.607835 -1.28407175 0)
(152.697171 -1.18204005 0)
(152.775231 -1.08289902 0)
(152.842703 -0.987140104 0)
(152.900299 -0.895151235 0)
(152.948731 -0.807225687 0)
(152.98871 -0.723571448 0)
(153.020928 -0.644320819 0)
(153.046059 -0.569540075 0)
(153.064749 -0.499238849 0)
(153.077612 -0.433379094 0)