/*--------------------------------*- C++ -*----------------------------------*\
| =========                 |                                                 |
| \\      /  F ield         | OpenFOAM: The Open Source CFD Toolbox           |
|  \\    /   O peration     | Version:  v2012                                 |
|   \\  /    A nd           | Website:  www.openfoam.com                      |
|    \\/     M anipulation  |                                                 |
\*---------------------------------------------------------------------------*/
FoamFile
{
    version     2.0;
    format      ascii;
    class       volScalarField;
    location    "2.39";
    object      p;
}
// * * * * * * * * * * * * * * * * * * * * * * * * * * * * * * * * * * * * * //

dimensions      [0 2 -2 0 0 0 0];


internalField   nonuniform List<scalar> 
28416
(
-0.00747583785
-0.00747423874
-0.00747087047
-0.00746588248
-0.00745948786
-0.00745176161
-0.00744268072
-0.00743222344
-0.00742039394
-0.00740720054
-0.00739264411
-0.00737672848
-0.00735948429
-0.00734101371
-0.00732153574
-0.00729971476
-0.00727749772
-0.00725479065
-0.00723121892
-0.00720657525
-0.00718067941
-0.007153628
-0.00712551981
-0.00709636904
-0.00706619908
-0.00703507272
-0.00700306164
-0.00697023225
-0.00693665058
-0.00690238448
-0.00686750164
-0.00683206962
-0.00679616004
-0.00675986081
-0.00672328713
-0.00668648709
-0.00664952995
-0.00661251279
-0.00657553652
-0.00653869805
-0.00650209024
-0.00646580009
-0.00642990672
-0.00639448004
-0.00635958061
-0.00632526049
-0.00629156447
-0.00625853096
-0.00622619227
-0.00619457423
-0.00616369554
-0.00613356705
-0.00610419128
-0.00607556233
-0.00604766587
-0.00602047943
-0.00599397266
-0.00596810774
-0.00594283977
-0.00591811731
-0.00589388295
-0.00587007397
-0.00584662312
-0.00582345942
-0.005800509
-0.00577769599
-0.00575494341
-0.00573217408
-0.00570931154
-0.00568628091
-0.00566300971
-0.0056394287
-0.00561547254
-0.00559108059
-0.00556619746
-0.00554077384
-0.00551476657
-0.00548813662
-0.00546084688
-0.00543286192
-0.00540416893
-0.00537479195
-0.00534470623
-0.0053139245
-0.00528243043
-0.00525024363
-0.00521738759
-0.00518388253
-0.00514975284
-0.0051150272
-0.0050797362
-0.0050439116
-0.00500758602
-0.00497079213
-0.00493356179
-0.00489592541
-0.00485791131
-0.00481954518
-0.0047808496
-0.0047418437
-0.00470254295
-0.00466295902
-0.0046230998
-0.00458296954
-0.00454256902
-0.00450189589
-0.00446094499
-0.0044197088
-0.00437817785
-0.00433634116
-0.00429418668
-0.00425170167
-0.00420887302
-0.00416568751
-0.00412213183
-0.0040781924
-0.00403385514
-0.00398910432
-0.00394393189
-0.00389833397
-0.00385230709
-0.00380584848
-0.00375895636
-0.0037116291
-0.00366386415
-0.00361566176
-0.00356702573
-0.00351796225
-0.00346847924
-0.00341858593
-0.00336829258
-0.00331761018
-0.00326654977
-0.00321512198
-0.00316333827
-0.00311121339
-0.00305876851
-0.00300603399
-0.00295305053
-0.00289986566
-0.00284651892
-0.00279295852
-0.00273909932
-0.00268492221
-0.00263045626
-0.0025757352
-0.00252077688
-0.00246559058
-0.00241018538
-0.00235457064
-0.00229875493
-0.0022427462
-0.00218655194
-0.00213017905
-0.00207363397
-0.00201692297
-0.00196005232
-0.00190302823
-0.00184585691
-0.0017885445
-0.00173109712
-0.00167352076
-0.00161582132
-0.00155800456
-0.00150007608
-0.00144204134
-0.00138390565
-0.00132567416
-0.00126735187
-0.00120894368
-0.00115045435
-0.00109188853
-0.0010332508
-0.000974545627
-0.000915777399
-0.000856950455
-0.000798069051
-0.000739137391
-0.000680159638
-0.000621139916
-0.0005620823
-0.000502990852
-0.000443869624
-0.000384722723
-0.000325554124
-0.000266368565
-0.000207168802
-0.00014796606
-8.87474622e-05
-2.96083724e-05
-0.00748303467
-0.00748186564
-0.00747899886
-0.00747436928
-0.0074682026
-0.00746063546
-0.00745166727
-0.0074412787
-0.00742948351
-0.00741630983
-0.00740178225
-0.00738592632
-0.00736877505
-0.00735034838
-0.0073305562
-0.0073089308
-0.00728678199
-0.00726385856
-0.00723960433
-0.00721419633
-0.00718768793
-0.00716007421
-0.00713139809
-0.00710170909
-0.00707104255
-0.00703944157
-0.00700696171
-0.0069736625
-0.0069396057
-0.00690485731
-0.00686948807
-0.00683357379
-0.00679719632
-0.00676044363
-0.00672340726
-0.00668617052
-0.00664881499
-0.00661142516
-0.00657409225
-0.00653690904
-0.006499965
-0.00646334501
-0.00642712858
-0.00639138899
-0.00635619276
-0.00632159933
-0.00628766071
-0.00625442122
-0.00622191718
-0.00619017659
-0.00615921892
-0.00612905487
-0.00609968621
-0.00607110576
-0.00604329742
-0.00601623634
-0.00598988928
-0.00596421501
-0.00593916486
-0.0059146833
-0.00589070871
-0.00586717409
-0.00584400791
-0.00582113501
-0.00579847752
-0.00577595579
-0.00575348933
-0.00573099773
-0.00570840163
-0.00568562352
-0.00566258859
-0.00563922546
-0.00561546691
-0.00559125034
-0.00556651832
-0.00554121872
-0.00551530474
-0.00548873669
-0.00546148396
-0.00543352696
-0.00540484923
-0.00537544341
-0.00534529423
-0.00531440889
-0.00528280071
-0.00525047841
-0.00521746307
-0.00518378053
-0.0051494597
-0.00511453309
-0.00507903576
-0.00504300434
-0.00500647632
-0.00496948913
-0.00493207928
-0.00489428147
-0.00485612785
-0.00481764735
-0.00477886509
-0.00473980199
-0.00470047447
-0.00466089433
-0.00462106881
-0.00458100072
-0.00454068878
-0.00450012801
-0.00445931017
-0.00441822436
-0.00437685751
-0.004335195
-0.00429322113
-0.00425091963
-0.00420827411
-0.00416526835
-0.00412188661
-0.00407811391
-0.00403393634
-0.00398934133
-0.0039443194
-0.00389886367
-0.0038529689
-0.00380663141
-0.0037598492
-0.00371262227
-0.00366495344
-0.00361684588
-0.00356830335
-0.00351933133
-0.00346993701
-0.00342012903
-0.00336991739
-0.00331931393
-0.00326833351
-0.00321699176
-0.00316530523
-0.00311329128
-0.00306096681
-0.00300834484
-0.00295542845
-0.00290219277
-0.00284867089
-0.0027949163
-0.0027409254
-0.00268667749
-0.00263216585
-0.00257740138
-0.00252239808
-0.00246716614
-0.00241171422
-0.00235605106
-0.00230018518
-0.00224412479
-0.00218787784
-0.00213145196
-0.00207485436
-0.00201809192
-0.00196117133
-0.00190409902
-0.00184688127
-0.0017895242
-0.0017320338
-0.00167441592
-0.00161667631
-0.00155882059
-0.00150085424
-0.00144278262
-0.00138461098
-0.00132634442
-0.00126798791
-0.00120954632
-0.0011510244
-0.00109242676
-0.00103375798
-0.000975022488
-0.000916224646
-0.000857368756
-0.000798459032
-0.000739499628
-0.000680494656
-0.000621448184
-0.000562364232
-0.000503246798
-0.000444099867
-0.000384927456
-0.000325733403
-0.000266522236
-0.000207296195
-0.000148065729
-8.88147935e-05
-2.96373676e-05
-0.00749037019
-0.00748900316
-0.00748595432
-0.00748122841
-0.00747501179
-0.00746740898
-0.00745841256
-0.00744799994
-0.00743617744
-0.0074229634
-0.0074083688
-0.00739239735
-0.007375053
-0.00735635059
-0.00733633699
-0.0073151012
-0.00729283911
-0.00726942465
-0.00724505704
-0.00721956535
-0.00719289352
-0.00716506785
-0.00713613451
-0.00710614173
-0.00707513589
-0.00704316993
-0.00701030518
-0.00697660662
-0.00694214123
-0.00690697876
-0.00687119176
-0.00683485539
-0.00679804814
-0.00676085359
-0.0067233625
-0.00668566488
-0.0066478457
-0.00660999422
-0.00657220595
-0.00653457753
-0.00649720321
-0.00646017289
-0.00642357065
-0.00638747364
-0.00635195158
-0.00631706654
-0.00628287297
-0.00624941749
-0.0062167386
-0.00618486623
-0.00615382131
-0.00612361542
-0.00609425052
-0.0060657189
-0.00603800333
-0.00601107725
-0.0059849052
-0.00595944323
-0.00593463957
-0.00591043519
-0.00588676469
-0.00586355701
-0.00584073643
-0.00581822348
-0.0057959359
-0.0057737897
-0.0057517001
-0.00572958252
-0.00570735357
-0.00568493194
-0.00566223934
-0.00563920125
-0.00561574771
-0.00559181383
-0.00556734042
-0.00554227434
-0.00551656915
-0.00549018581
-0.00546309182
-0.0054352588
-0.00540667895
-0.00537732618
-0.0053472156
-0.00531634649
-0.00528472163
-0.00525236035
-0.00521928625
-0.00518552676
-0.00515111349
-0.00511608215
-0.0050804713
-0.00504432125
-0.00500767322
-0.00497056835
-0.00493304665
-0.00489514609
-0.00485690168
-0.00481834473
-0.0047795022
-0.00474039627
-0.00470104397
-0.00466145714
-0.00462164246
-0.00458160171
-0.00454133207
-0.00450082671
-0.00446007529
-0.00441906461
-0.00437777926
-0.00433620229
-0.00429431576
-0.00425210137
-0.00420954092
-0.00416661671
-0.00412331192
-0.00407961088
-0.00403549932
-0.00399096461
-0.00394599659
-0.00390058777
-0.00385473294
-0.00380842882
-0.00376167404
-0.00371446909
-0.00366681613
-0.00361871845
-0.00357018067
-0.00352120909
-0.00347181167
-0.00342199775
-0.0033717777
-0.00332116218
-0.00327016093
-0.00321878519
-0.00316704781
-0.00311496326
-0.00306254738
-0.00300981482
-0.0029567978
-0.00290355692
-0.00285005444
-0.00279628432
-0.00274224903
-0.00268795037
-0.00263339246
-0.00257858469
-0.00252353895
-0.00246826592
-0.00241277498
-0.00235707505
-0.00230117452
-0.00224508119
-0.00218880245
-0.00213234538
-0.00207571679
-0.00201892332
-0.00196197158
-0.00190486804
-0.00184761914
-0.00179023114
-0.00173271022
-0.00167506236
-0.00161729341
-0.00155940904
-0.00150141478
-0.00144331597
-0.00138511785
-0.00132682548
-0.00126844378
-0.00120997759
-0.00115143159
-0.00109281038
-0.00103411847
-0.000975360257
-0.000916540077
-0.000857662195
-0.000798730798
-0.000739750013
-0.000680723922
-0.000621656558
-0.000562551902
-0.000503413898
-0.000444246461
-0.000385053521
-0.000325838797
-0.000266606663
-0.000207359238
-0.000148107001
-8.88351561e-05
-2.96403851e-05
-0.00750031812
-0.00749908298
-0.0074962073
-0.00749163411
-0.00748552742
-0.0074779928
-0.0074690307
-0.00745862486
-0.0074467866
-0.00743354094
-0.00741890915
-0.00740290938
-0.00738556353
-0.00736689436
-0.00734689809
-0.0073255424
-0.00730302972
-0.00727937373
-0.00725444744
-0.00722836268
-0.00720113516
-0.00717278931
-0.00714335806
-0.00711287579
-0.00708138266
-0.0070489267
-0.00701556327
-0.00698135284
-0.00694635982
-0.00691065313
-0.00687430688
-0.00683740092
-0.00680002085
-0.00676225621
-0.00672419408
-0.0066859202
-0.00664753327
-0.00660913344
-0.00657081762
-0.00653268236
-0.00649482291
-0.0064573311
-0.0064202939
-0.00638379234
-0.00634790067
-0.00631268581
-0.00627820686
-0.00624451456
-0.00621165077
-0.00617964783
-0.00614852819
-0.00611830397
-0.00608897686
-0.0060605381
-0.00603296861
-0.00600623927
-0.00598031134
-0.00595513699
-0.00593065996
-0.0059068163
-0.00588353526
-0.00586074021
-0.00583834963
-0.00581627817
-0.00579443777
-0.00577273871
-0.00575109072
-0.00572940405
-0.0057075905
-0.00568556432
-0.00566324312
-0.00564054866
-0.00561740749
-0.00559375167
-0.00556951935
-0.00554465528
-0.00551911116
-0.00549284586
-0.00546582545
-0.00543802387
-0.00540941143
-0.00538003951
-0.0053498487
-0.00531885399
-0.0052870727
-0.0052545242
-0.00522123513
-0.00518723763
-0.00515256857
-0.00511726897
-0.00508138298
-0.00504495684
-0.00500803777
-0.00497067283
-0.00493290775
-0.00489478571
-0.0048563464
-0.004817625
-0.00477865146
-0.00473944994
-0.00470003846
-0.00466042882
-0.00462062666
-0.00458063184
-0.0045404389
-0.00450003768
-0.0044594141
-0.00441855091
-0.0043774285
-0.00433602573
-0.00429432062
-0.00425229106
-0.00420991541
-0.00416717293
-0.00412404429
-0.00408051181
-0.00403655984
-0.00399217494
-0.00394734634
-0.00390206588
-0.00385632789
-0.00381012896
-0.00376346776
-0.00371634499
-0.00366876317
-0.00362072652
-0.00357224075
-0.00352331309
-0.00347395214
-0.00342416766
-0.00337397029
-0.00332337134
-0.00327238267
-0.00322101723
-0.00316928924
-0.00311721538
-0.00306481906
-0.0030121333
-0.00295914929
-0.00290586304
-0.00285229202
-0.00279844813
-0.00274433785
-0.00268996727
-0.00263534302
-0.00258047305
-0.0025253668
-0.00247003368
-0.00241448236
-0.00235872123
-0.00230275871
-0.00224660318
-0.00219026281
-0.00213374541
-0.00207705834
-0.00202020858
-0.00196320283
-0.00190604749
-0.00184874879
-0.0017913128
-0.00173374546
-0.00167605259
-0.00161823986
-0.00156031283
-0.00150227692
-0.00144413743
-0.00138589953
-0.00132756827
-0.00126914854
-0.00121064516
-0.0011520628
-0.00109340603
-0.00103467934
-0.000975887107
-0.000917033608
-0.000858123068
-0.000799159619
-0.00074014733
-0.000681090216
-0.000621992244
-0.000562857321
-0.000503689317
-0.000444492064
-0.000385269399
-0.000326024927
-0.000266762901
-0.000207485191
-0.000148202025
-8.8896789e-05
-2.96654317e-05
-0.00751225108
-0.00751100269
-0.00750810711
-0.00750350904
-0.00749737656
-0.00748981701
-0.00748082858
-0.00747039071
-0.00745851006
-0.00744520713
-0.0074304974
-0.00741438997
-0.00739689356
-0.00737801866
-0.00735778729
-0.00733626999
-0.00731350685
-0.00728952533
-0.00726434619
-0.00723794499
-0.0072103435
-0.00718156667
-0.00715165304
-0.00712064909
-0.00708860381
-0.00705556974
-0.00702160416
-0.00698676893
-0.00695113022
-0.00691475868
-0.00687772947
-0.00684012197
-0.0068020196
-0.00676351078
-0.00672469579
-0.00668568668
-0.00664657388
-0.00660744992
-0.00656841804
-0.0065295821
-0.00649104396
-0.00645290232
-0.00641525102
-0.00637817776
-0.00634176315
-0.00630608014
-0.00627119334
-0.00623715837
-0.00620402103
-0.00617181671
-0.00614056986
-0.00611029363
-0.00608098975
-0.00605264847
-0.00602524874
-0.00599875852
-0.00597313523
-0.00594832641
-0.0059242704
-0.0059008973
-0.00587812985
-0.00585588454
-0.00583407273
-0.00581260178
-0.00579137628
-0.00577029922
-0.00574927312
-0.00572820122
-0.00570698855
-0.00568554299
-0.00566377632
-0.00564160508
-0.00561895144
-0.00559574382
-0.00557191748
-0.00554741489
-0.0055221862
-0.00549618968
-0.00546939234
-0.00544177075
-0.00541331747
-0.00538397757
-0.00535379556
-0.00532277187
-0.00529091849
-0.00525825789
-0.00522482
-0.00519064137
-0.00515576421
-0.0051202355
-0.00508410593
-0.00504742864
-0.00501025784
-0.00497264757
-0.00493465015
-0.00489631492
-0.00485768693
-0.00481880584
-0.00477970498
-0.00474041077
-0.00470094226
-0.00466131107
-0.0046215216
-0.00458157147
-0.00454145211
-0.00450114964
-0.00446064579
-0.00441991884
-0.00437894468
-0.00433769774
-0.00429615186
-0.00425428109
-0.00421206043
-0.00416946629
-0.00412647702
-0.00408307326
-0.00403923813
-0.0039949575
-0.0039502201
-0.00390501753
-0.00385934412
-0.00381319676
-0.0037665747
-0.00371947936
-0.00367191416
-0.00362388428
-0.0035753965
-0.00352645905
-0.00347708152
-0.00342727464
-0.00337705017
-0.00332642082
-0.0032754003
-0.0032240035
-0.00317224555
-0.003120136
-0.00306767073
-0.00301487189
-0.00296178145
-0.00290840979
-0.002854758
-0.00280083226
-0.00274664033
-0.0026921898
-0.00263748811
-0.00258254316
-0.00252736374
-0.00247195908
-0.00241633824
-0.00236050998
-0.00230448263
-0.00224826406
-0.00219186181
-0.00213528328
-0.00207853569
-0.00202162608
-0.00196456127
-0.00190734789
-0.00184999237
-0.00179250094
-0.00173487963
-0.0016771343
-0.00161927064
-0.00156129419
-0.00150321032
-0.00144502428
-0.00138674117
-0.00132836594
-0.00126990342
-0.00121135833
-0.00115273526
-0.00109403871
-0.0010352731
-0.000976442718
-0.000917551804
-0.000858604519
-0.000799604944
-0.000740557094
-0.000681464934
-0.000622332372
-0.000563163255
-0.000503961382
-0.000444730509
-0.000385474381
-0.000326196507
-0.000266901029
-0.000207589784
-0.000148273036
-8.8935484e-05
-2.9674617e-05
-0.00752619999
-0.00752495182
-0.00752206371
-0.00751747632
-0.00751134759
-0.00750377677
-0.00749475829
-0.00748427038
-0.00747231932
-0.00745892543
-0.00744410447
-0.00742786665
-0.00741022334
-0.00739119197
-0.00737079855
-0.0073490763
-0.00732604059
-0.00730170492
-0.00727610582
-0.00724925964
-0.00722118917
-0.00719191853
-0.00716148232
-0.00712992312
-0.00709728828
-0.0070636302
-0.00702900687
-0.00699348157
-0.00695712265
-0.00692000367
-0.00688220402
-0.00684380957
-0.0068049132
-0.00676561461
-0.00672600862
-0.00668616519
-0.00664620852
-0.00660625847
-0.00656642187
-0.00652680626
-0.00648751966
-0.00644866723
-0.0064103494
-0.00637266042
-0.00633568723
-0.00629950872
-0.00626419496
-0.00622980649
-0.00619639346
-0.00616399474
-0.00613263722
-0.00610233529
-0.00607309066
-0.00604489228
-0.00601771663
-0.00599152804
-0.0059662793
-0.00594191231
-0.00591835895
-0.00589554206
-0.00587337656
-0.0058517706
-0.00583062686
-0.00580984385
-0.00578931729
-0.00576894141
-0.00574861033
-0.00572821934
-0.00570766612
-0.00568685184
-0.00566568209
-0.00564406778
-0.0056219259
-0.00559918017
-0.00557576177
-0.00555160985
-0.00552667203
-0.00550090468
-0.00547427305
-0.00544675188
-0.0054183243
-0.00538897731
-0.00535872043
-0.0053275622
-0.0052955222
-0.00526262794
-0.00522891475
-0.00519442514
-0.00515920814
-0.00512331827
-0.00508681431
-0.00504975793
-0.0050122122
-0.0049742399
-0.00493590184
-0.00489725518
-0.00485835188
-0.0048192373
-0.00477994909
-0.00474051642
-0.00470095951
-0.00466128959
-0.0046215092
-0.00458161275
-0.00454158743
-0.00450141427
-0.00446106934
-0.00442052496
-0.00437975099
-0.00433871601
-0.00429738832
-0.00425573695
-0.0042137324
-0.00417134732
-0.00412855692
-0.00408533938
-0.00404167603
-0.00399755152
-0.00395295381
-0.00390787411
-0.00386230676
-0.00381624894
-0.00376970049
-0.00372266362
-0.00367514265
-0.00362714382
-0.00357867497
-0.00352974539
-0.00348036552
-0.0034305468
-0.00338030137
-0.00332964178
-0.00327858046
-0.0032271294
-0.00317530259
-0.00312312444
-0.00307065575
-0.00301785089
-0.00296471895
-0.00291128116
-0.00285755488
-0.0028035503
-0.0027492766
-0.00269474292
-0.00263995817
-0.00258493124
-0.00252967119
-0.00247418714
-0.00241848804
-0.00236258253
-0.00230647902
-0.00225018566
-0.00219371037
-0.00213706072
-0.00208024398
-0.0020232671
-0.00196613683
-0.00190885969
-0.00185144202
-0.00179388996
-0.00173620947
-0.00167840638
-0.00162048631
-0.00156245476
-0.00150431705
-0.00144607839
-0.00138774384
-0.00132931831
-0.0012708066
-0.0012122134
-0.00115354328
-0.00109480069
-0.00103599
-0.000977115463
-0.000918181257
-0.000859191481
-0.000800150145
-0.000741061192
-0.000681928512
-0.000622755937
-0.000563547234
-0.000504306125
-0.000445036282
-0.000385741369
-0.000326424808
-0.000267090664
-0.000207740611
-0.000148384784
-8.9006367e-05
-2.97022073e-05
-0.0075421743
-0.0075409258
-0.0075380335
-0.00753343421
-0.00752728348
-0.0075196797
-0.0075106166
-0.0075000709
-0.0074880469
-0.00747456264
-0.00745963128
-0.00744326039
-0.00742545824
-0.00740623796
-0.00738561914
-0.00736361925
-0.00734025636
-0.00731556192
-0.00728954914
-0.00726223502
-0.0072336424
-0.00720380497
-0.00717276005
-0.00714055101
-0.00710722713
-0.00707284273
-0.00703745706
-0.00700113441
-0.00696394421
-0.00692596119
-0.00688726538
-0.00684794166
-0.00680807859
-0.00676776832
-0.00672712368
-0.00668631517
-0.00664539304
-0.00660446687
-0.00656366203
-0.00652309781
-0.00648289189
-0.00644315909
-0.00640400953
-0.00636554698
-0.00632786763
-0.00629105914
-0.00625519968
-0.00622035687
-0.00618658659
-0.00615393203
-0.00612242294
-0.0060920751
-0.0060628901
-0.00603485538
-0.00600794446
-0.00598211735
-0.00595732119
-0.00593349106
-0.00591055098
-0.00588841502
-0.00586698862
-0.00584616994
-0.00582585129
-0.00580592067
-0.00578626324
-0.00576676282
-0.0057473033
-0.00572777005
-0.0057080512
-0.00568803891
-0.00566763052
-0.00564672965
-0.00562524704
-0.00560310134
-0.00558021964
-0.00555653787
-0.00553200109
-0.00550656383
-0.00548019036
-0.00545285461
-0.00542453911
-0.0053952384
-0.00536495542
-0.00533370413
-0.00530150621
-0.00526839444
-0.00523441008
-0.00519960245
-0.00516402862
-0.00512775213
-0.00509084167
-0.00505336942
-0.00501540928
-0.00497703488
-0.00493831744
-0.00489932379
-0.00486011437
-0.00482074151
-0.00478124806
-0.00474166645
-0.00470201815
-0.00466231366
-0.00462255294
-0.00458272628
-0.00454281543
-0.004502795
-0.00446263403
-0.00442229758
-0.00438174823
-0.00434094758
-0.00429985748
-0.00425844118
-0.00421666417
-0.00417449491
-0.0041319053
-0.00408887103
-0.0040453717
-0.00400139092
-0.00395691618
-0.00391193873
-0.00386645332
-0.00382045791
-0.00377395336
-0.0037269431
-0.00367943281
-0.00363143015
-0.00358294444
-0.0035339865
-0.00348456838
-0.00343470323
-0.00338440519
-0.00333368948
-0.00328257276
-0.00323107298
-0.00317920416
-0.00312695802
-0.00307434126
-0.00302140964
-0.00296816989
-0.00291462919
-0.00286079895
-0.00280668977
-0.00275231168
-0.00269767438
-0.00264278735
-0.00258765996
-0.00253230151
-0.00247672114
-0.00242092779
-0.0023649301
-0.00230873644
-0.00225235491
-0.00219579336
-0.00213905938
-0.00208216028
-0.00202510313
-0.00196789473
-0.00191054162
-0.00185305015
-0.00179542644
-0.00173767642
-0.00167980583
-0.00162182024
-0.00156372507
-0.00150552557
-0.00144722686
-0.00138883389
-0.00133035151
-0.0012717844
-0.00121313717
-0.00115441427
-0.00109562008
-0.00103675888
-0.000977834845
-0.00091885207
-0.000859814595
-0.000800726365
-0.000741591261
-0.000682413108
-0.00062319567
-0.000563942644
-0.000504657675
-0.000445344357
-0.000386006271
-0.000326646757
-0.000267269797
-0.00020787705
-0.000148478691
-8.90591029e-05
-2.97162989e-05
-0.00756017676
-0.00755892474
-0.00755602167
-0.00755140207
-0.00754522047
-0.00753757346
-0.00752845202
-0.00751783016
-0.00750570985
-0.00749210722
-0.00747703369
-0.0074604949
-0.00744249765
-0.00742305267
-0.00740217274
-0.00737987453
-0.00735617756
-0.00733109349
-0.00730464289
-0.00727684396
-0.00724772244
-0.00721730752
-0.00718563458
-0.00715274593
-0.00711869052
-0.00708352318
-0.0070473041
-0.00701009895
-0.00697197918
-0.00693302259
-0.00689331421
-0.00685294734
-0.00681202373
-0.00677065121
-0.00672893523
-0.00668698561
-0.00664488177
-0.00660281303
-0.00656088723
-0.00651923059
-0.00647797078
-0.00643723262
-0.00639713679
-0.00635779756
-0.00631932112
-0.00628180443
-0.00624533415
-0.0062099854
-0.00617582053
-0.00614288785
-0.00611122065
-0.00608083658
-0.00605173726
-0.00602390841
-0.00599732002
-0.00597192697
-0.00594766974
-0.00592447533
-0.00590225843
-0.00588092274
-0.0058603624
-0.00584046363
-0.00582110631
-0.00580216572
-0.00578351426
-0.00576502317
-0.00574656423
-0.00572801132
-0.00570924201
-0.00569013883
-0.00567059049
-0.00565049285
-0.00562974974
-0.00560827371
-0.0055859866
-0.00556282005
-0.00553871586
-0.0055136263
-0.00548751397
-0.005460352
-0.00543212461
-0.00540282477
-0.00537245985
-0.00534104672
-0.00530861258
-0.00527519516
-0.00524084254
-0.00520561223
-0.00516957062
-0.00513279194
-0.00509535668
-0.00505734975
-0.00501885834
-0.00497996949
-0.00494076748
-0.00490133122
-0.00486173181
-0.00482203031
-0.004782276
-0.00474250523
-0.00470274075
-0.00466299181
-0.00462325479
-0.00458351438
-0.00454374512
-0.00450391332
-0.00446397898
-0.00442389789
-0.00438362354
-0.00434310887
-0.00430230784
-0.0042611767
-0.00421967496
-0.00417776619
-0.00413541843
-0.00409260455
-0.00404930222
-0.00400549396
-0.00396116686
-0.00391631235
-0.00387092583
-0.00382500628
-0.00377855588
-0.00373157958
-0.00368408474
-0.00363608075
-0.00358757867
-0.00353859093
-0.00348913102
-0.00343921314
-0.00338885196
-0.00333806214
-0.00328685777
-0.00323525389
-0.00318327772
-0.00313095472
-0.0030782751
-0.00302525718
-0.00297191965
-0.00291827662
-0.00286434074
-0.00281012387
-0.00275563722
-0.00270089146
-0.00264589674
-0.00259066293
-0.0025351996
-0.00247951614
-0.00242362167
-0.00236752503
-0.00231123474
-0.00225475897
-0.00219810551
-0.00214128189
-0.00208429535
-0.00202715289
-0.00196986127
-0.001912427
-0.00185485637
-0.0017971555
-0.00173933025
-0.00168138634
-0.00162332929
-0.00156516443
-0.00150689697
-0.00144853196
-0.00139007429
-0.00133152875
-0.00127289996
-0.00121419247
-0.00115541069
-0.00109655893
-0.00103764139
-0.000978662183
-0.000919625333
-0.000860534786
-0.000801394401
-0.000742207967
-0.000682979221
-0.000623711839
-0.000564409431
-0.000505075561
-0.000445713742
-0.000386327478
-0.000326920032
-0.000267495324
-0.000208054897
-0.00014860882
-8.91403138e-05
-2.97465748e-05
-0.007580215
-0.00757895788
-0.00757604031
-0.00757139459
-0.00756517515
-0.00755747783
-0.00754829173
-0.00753758855
-0.00752536808
-0.00751164427
-0.00749642599
-0.0074797158
-0.00746151674
-0.00744183526
-0.00742068
-0.00739806085
-0.00737398988
-0.00734848206
-0.00732155387
-0.00729322355
-0.00726351326
-0.00723245146
-0.00720007394
-0.00716642378
-0.00713155023
-0.0070955082
-0.0070583585
-0.00702016813
-0.0069810107
-0.00694096668
-0.00690012364
-0.00685857607
-0.00681642603
-0.00677378445
-0.00673077952
-0.00668749546
-0.00664413848
-0.0066007822
-0.00655757647
-0.00651466344
-0.00647218315
-0.00643027496
-0.00638907348
-0.00634870634
-0.00630929256
-0.00627094121
-0.00623374999
-0.00619780374
-0.00616317287
-0.00612991195
-0.00609805846
-0.00606763213
-0.00603863457
-0.0060110493
-0.00598484215
-0.00595996183
-0.00593634082
-0.00591389648
-0.00589253237
-0.00587213983
-0.00585259964
-0.00583378392
-0.00581555797
-0.00579778234
-0.00578031471
-0.0057630119
-0.00574573167
-0.00572833452
-0.00571068532
-0.00569265478
-0.00567412084
-0.00565496978
-0.00563509725
-0.00561440902
-0.00559282149
-0.00557026208
-0.00554666942
-0.00552199345
-0.00549619559
-0.00546924909
-0.00544113831
-0.00541185864
-0.00538141446
-0.00534982976
-0.00531713619
-0.00528337649
-0.00524860592
-0.00521289104
-0.00517630907
-0.00513894678
-0.0051008988
-0.00506226547
-0.00502315025
-0.00498365674
-0.00494388539
-0.0049039302
-0.00486387552
-0.00482379325
-0.00478374055
-0.00474375836
-0.00470387069
-0.00466408477
-0.00462439201
-0.00458476961
-0.00454518271
-0.00450558686
-0.00446593062
-0.00442615819
-0.00438621182
-0.00434603396
-0.00430556916
-0.00426476546
-0.00422357557
-0.00418195759
-0.00413987545
-0.00409729913
-0.00405420458
-0.00401057348
-0.00396639299
-0.0039216552
-0.00387635672
-0.00383049816
-0.00378408355
-0.0037371199
-0.00368961666
-0.00364158537
-0.00359303916
-0.00354399253
-0.00349446096
-0.00344446077
-0.0033940089
-0.00334312303
-0.00329182114
-0.00324011853
-0.00318802449
-0.00313556641
-0.00308275921
-0.00302961552
-0.00297615005
-0.00292237752
-0.00286831156
-0.0028139646
-0.00275934845
-0.00270447436
-0.00264935307
-0.00259399485
-0.00253840963
-0.00248260696
-0.00242659599
-0.00237038549
-0.00231398396
-0.00225739956
-0.00220064021
-0.00214371351
-0.00208662675
-0.00202938692
-0.00197200072
-0.00191447463
-0.00185681485
-0.00179902739
-0.00174111808
-0.0016830925
-0.00162495609
-0.00156671411
-0.00150837166
-0.00144993369
-0.00139140502
-0.00133279029
-0.00127409406
-0.00121532074
-0.00115647464
-0.00109755997
-0.00103858083
-0.000979541258
-0.000920445175
-0.000861296459
-0.000802098895
-0.000742856201
-0.000683572037
-0.000624250004
-0.000564893634
-0.000505506409
-0.000446091757
-0.000386653098
-0.000327193616
-0.000267717146
-0.000208225194
-0.000148727812
-8.92090297e-05
-2.97668656e-05
-0.00760229982
-0.00760103683
-0.00759810262
-0.00759342737
-0.0075871658
-0.00757941321
-0.00757015647
-0.00755936452
-0.00754703456
-0.00753317804
-0.00751780105
-0.00750090308
-0.00748248373
-0.00746254567
-0.00744109431
-0.00741813694
-0.00739367989
-0.00736773394
-0.00734031122
-0.0073114269
-0.00728110147
-0.00724936216
-0.0072162427
-0.00718178389
-0.00714603364
-0.00710904678
-0.00707088478
-0.00703161566
-0.00699131437
-0.00695006351
-0.00690795427
-0.00686508699
-0.00682157133
-0.00677752835
-0.00673307311
-0.00668834643
-0.00664349441
-0.00659865508
-0.00655397988
-0.00650962277
-0.00646574104
-0.00642248966
-0.00638001885
-0.00633847186
-0.00629798266
-0.00625867429
-0.00622065721
-0.00618402754
-0.00614886523
-0.00611523228
-0.00608317132
-0.00605270473
-0.00602383417
-0.00599654069
-0.00597078518
-0.00594650905
-0.00592363534
-0.00590206999
-0.00588170343
-0.00586241238
-0.00584406185
-0.00582650731
-0.00580959684
-0.00579317343
-0.00577707725
-0.00576114788
-0.0057452265
-0.00572915791
-0.00571279247
-0.00569598771
-0.00567860984
-0.00566053492
-0.00564164979
-0.00562185278
-0.0056010542
-0.00557917663
-0.00555615505
-0.00553193694
-0.00550648229
-0.00547976319
-0.0054517639
-0.00542248354
-0.0053919265
-0.00536012127
-0.00532710249
-0.00529291937
-0.00525763561
-0.00522132784
-0.00518408557
-0.00514601023
-0.00510721325
-0.00506781368
-0.00502793499
-0.00498770139
-0.00494723365
-0.00490664479
-0.00486603594
-0.0048254926
-0.00478508172
-0.00474484972
-0.00470482169
-0.00466500171
-0.00462537425
-0.00458590643
-0.00454655095
-0.00450724941
-0.00446793576
-0.00442853958
-0.00438898922
-0.00434921439
-0.00430914833
-0.00426872953
-0.00422790291
-0.00418662052
-0.00414484192
-0.00410253424
-0.00405967185
-0.00401623607
-0.00397221453
-0.00392760059
-0.00388239264
-0.00383659346
-0.00379020955
-0.00374325053
-0.00369572852
-0.00364765774
-0.00359905394
-0.00354993403
-0.00350031575
-0.00345021723
-0.00339965657
-0.00334865134
-0.00329721806
-0.00324539153
-0.00319317305
-0.00314058076
-0.00308763423
-0.0030343505
-0.0029807443
-0.00292683039
-0.0028726229
-0.00281813494
-0.00276337887
-0.00270836646
-0.00265310884
-0.00259761662
-0.00254189993
-0.00248596851
-0.0024298317
-0.00237349846
-0.0023169774
-0.00226027671
-0.00220340421
-0.00214636739
-0.00208917344
-0.00203182928
-0.0019743416
-0.00191671677
-0.00185896098
-0.00180108015
-0.00174308002
-0.00168496612
-0.00162674378
-0.00156841818
-0.0015099943
-0.00145147701
-0.00139287102
-0.0013341809
-0.0012754111
-0.00121656597
-0.00115764973
-0.00109866649
-0.00103962028
-0.000980515031
-0.000921354577
-0.000862142689
-0.00080288305
-0.000743579273
-0.000684234921
-0.000624853497
-0.00056543844
-0.000505993143
-0.000446520952
-0.000387025207
-0.000327509014
-0.00026797614
-0.000208428
-0.000148874556
-8.92991296e-05
-2.97989513e-05
-0.00762644372
-0.00762517465
-0.00762222288
-0.00761751648
-0.00761121075
-0.0076034007
-0.00759407116
-0.00758318831
-0.0075707467
-0.00755675508
-0.00754121654
-0.00752412704
-0.00750548204
-0.00748527994
-0.00746352168
-0.00744020985
-0.00741534802
-0.00738893866
-0.00736099183
-0.00733152058
-0.00730054191
-0.00726807857
-0.00723416156
-0.00719882997
-0.00716213042
-0.00712411662
-0.0070848494
-0.00704439714
-0.00700283648
-0.00696025298
-0.00691674173
-0.00687240769
-0.00682736667
-0.00678174381
-0.00673567348
-0.00668929621
-0.00664276596
-0.00659624718
-0.00654990069
-0.00650389862
-0.00645841502
-0.00641362357
-0.00636969387
-0.00632678806
-0.00628505831
-0.00624464476