/*--------------------------------*- C++ -*----------------------------------*\
| =========                 |                                                 |
| \\      /  F ield         | OpenFOAM: The Open Source CFD Toolbox           |
|  \\    /   O peration     | Version:  v2012                                 |
|   \\  /    A nd           | Website:  www.openfoam.com                      |
|    \\/     M anipulation  |                                                 |
\*---------------------------------------------------------------------------*/
FoamFile
{
    version     2.0;
    format      ascii;
    class       surfaceScalarField;
    location    "2.39";
    object      phi;
}
// * * * * * * * * * * * * * * * * * * * * * * * * * * * * * * * * * * * * * //

dimensions      [0 3 -1 0 0 0 0];
oriented        oriented;


internalField   nonuniform List<scalar> 
56481
(
6.66601614e-07
1.34092044e-10
6.66425909e-07
4.15354424e-10
6.6614468e-07
7.0547357e-10
6.65770388e-07
9.74169879e-10
6.65321406e-07
1.1952203e-09
6.64820248e-07
1.34878299e-09
6.64291718e-07
1.42294359e-09
6.6376036e-07
1.41630259e-09
6.63248317e-07
1.33669764e-09
6.62774752e-07
1.19570226e-09
6.62356296e-07
1.00473635e-09
6.62006942e-07
7.77007866e-10
6.6173647e-07
5.32814835e-10
6.61548205e-07
3.01914997e-10
6.61438561e-07
1.18918567e-10
6.61368467e-07
1.16236383e-11
6.61308107e-07
2.02507649e-11
6.61214521e-07
1.46338784e-10
6.61056569e-07
3.62377709e-10
6.60825507e-07
6.39709965e-10
6.60519597e-07
9.46573809e-10
6.6014615e-07
1.24611724e-09
6.59719866e-07
1.50355897e-09
6.59259453e-07
1.6937853e-09
6.58785218e-07
1.80232936e-09
6.58317417e-07
1.82392949e-09
6.57874959e-07
1.7613959e-09
6.57474525e-07
1.62458368e-09
6.5712982e-07
1.42951391e-09
6.56850538e-07
1.19796054e-09
6.56640933e-07
9.57198732e-10
6.56498377e-07
7.38983435e-10
6.56412948e-07
5.76782375e-10
6.56368389e-07
5.00829675e-10
6.5633951e-07
5.3138953e-10
6.56301246e-07
6.74679361e-10
6.56231512e-07
9.19542122e-10
6.56114536e-07
1.23810638e-09
6.55943474e-07
1.59124331e-09
6.55720953e-07
1.93739329e-09
6.55457254e-07
2.24203119e-09
6.55166801e-07
2.48475488e-09
6.54864108e-07
2.66190776e-09
6.54560417e-07
2.78420353e-09
6.54261903e-07
2.87062863e-09
6.53969694e-07
2.94115611e-09
6.5368127e-07
3.01092736e-09
6.5339244e-07
3.08756247e-09
6.53099092e-07
3.17172133e-09
6.52798213e-07
3.25974166e-09
6.52488114e-07
3.34669359e-09
6.5216812e-07
3.42854422e-09
6.51838086e-07
3.50295041e-09
6.51498022e-07
3.56895501e-09
6.51147933e-07
3.62622116e-09
6.50787853e-07
3.67436673e-09
6.50417955e-07
3.71265749e-09
6.50038656e-07
3.74002993e-09
6.49650675e-07
3.75526951e-09
6.49255042e-07
3.75718606e-09
6.48853089e-07
3.744711e-09
6.48446424e-07
3.71692136e-09
6.48036915e-07
3.67302747e-09
6.47626675e-07
3.61236069e-09
6.47218039e-07
3.53437019e-09
6.46813543e-07
3.43863261e-09
6.46415892e-07
3.32486567e-09
6.46027935e-07
3.19293257e-09
6.45652631e-07
3.04285473e-09
6.45293037e-07
2.87481619e-09
6.44952292e-07
2.68916123e-09
6.44633615e-07
2.48639714e-09
6.44340307e-07
2.26718542e-09
6.44075753e-07
2.03232202e-09
6.43843439e-07
1.78269556e-09
6.43647052e-07
1.51917031e-09
6.43490128e-07
1.24291626e-09
6.43375679e-07
9.55231221e-10
6.43306039e-07
6.57353417e-10
6.43282548e-07
3.5089631e-10
6.43305164e-07
3.90694463e-11
6.43386236e-07
-2.80428768e-10
6.43524979e-07
-6.01769418e-10
6.43722244e-07
-9.26159841e-10
6.43978409e-07
-1.25148244e-09
6.44293748e-07
-1.5758212e-09
6.44668124e-07
-1.89713453e-09
6.4510083e-07
-2.21313559e-09
6.45590571e-07
-2.52141306e-09
6.46135453e-07
-2.8194885e-09
6.46732972e-07
-3.10482566e-09
6.4738005e-07
-3.37487473e-09
6.4807308e-07
-3.62713068e-09
6.48807981e-07
-3.85920971e-09
6.49580253e-07
-4.0689258e-09
6.50385028e-07
-4.2543576e-09
6.51217126e-07
-4.41391602e-09
6.52071116e-07
-4.5463904e-09
6.52941389e-07
-4.65096996e-09
6.53822241e-07
-4.72726364e-09
6.54707964e-07
-4.77530013e-09
6.55592942e-07
-4.79550885e-09
6.56471737e-07
-4.78870654e-09
6.57339175e-07
-4.75606162e-09
6.58190418e-07
-4.69906026e-09
6.59021018e-07
-4.61945169e-09
6.59826968e-07
-4.51920982e-09
6.60604731e-07
-4.40046764e-09
6.61351256e-07
-4.26547191e-09
6.62063991e-07
-4.1165258e-09
6.62740871e-07
-3.95594361e-09
6.63380307e-07
-3.78599875e-09
6.63981151e-07
-3.60889013e-09
6.64542663e-07
-3.42670596e-09
6.65064435e-07
-3.24138117e-09
6.65546283e-07
-3.05466186e-09
6.65988444e-07
-2.8680244e-09
6.66391925e-07
-2.68265967e-09
6.66757946e-07
-2.49970077e-09
6.67087884e-07
-2.32020956e-09
6.67383231e-07
-2.14511319e-09
6.67645559e-07
-1.97519089e-09
6.67876484e-07
-1.8110674e-09
6.6807761e-07
-1.6531996e-09
6.68250607e-07
-1.5019877e-09
6.6839724e-07
-1.3577267e-09
6.68519297e-07
-1.22051969e-09
6.6861856e-07
-1.09038332e-09
6.68696785e-07
-9.6726931e-10
6.68755688e-07
-8.51076467e-10
6.68796925e-07
-7.41658425e-10
6.68822081e-07
-6.3882661e-10
6.68832643e-07
-5.42337333e-10
6.68830017e-07
-4.51903467e-10
6.68815586e-07
-3.6721956e-10
6.68790799e-07
-2.87992566e-10
6.687573e-07
-2.14005544e-10
6.68717031e-07
-1.45233217e-10
6.68672318e-07
-8.20534737e-11
6.68625507e-07
-2.54024127e-11
6.68575442e-07
2.69125052e-11
6.68518589e-07
7.37203278e-11
6.68453928e-07
1.13029404e-10
6.68383168e-07
1.46996543e-10
6.68307389e-07
1.76885278e-10
6.68227504e-07
2.03281674e-10
6.68144318e-07
2.26570275e-10
6.68058542e-07
2.4711251e-10
6.67970823e-07
2.6521593e-10
6.67881751e-07
2.81125786e-10
6.67791849e-07
2.9504617e-10
6.67701568e-07
3.07144503e-10
6.67611287e-07
3.17552804e-10
6.67521317e-07
3.26379616e-10
6.67431904e-07
3.33721729e-10
6.67343244e-07
3.39670012e-10
6.67255499e-07
3.44313264e-10
6.67168803e-07
3.47740413e-10
6.67083273e-07
3.50040905e-10
6.66999014e-07
3.51304842e-10
6.66916125e-07
3.51621224e-10
6.66834698e-07
3.51076609e-10
6.66754821e-07
3.49752868e-10
6.66676574e-07
3.47726762e-10
6.66600033e-07
3.45068062e-10
6.66525264e-07
3.41839701e-10
6.66452328e-07
3.38097391e-10
6.66381273e-07
3.33890353e-10
6.66312141e-07
3.29261435e-10
6.66244964e-07
3.24248548e-10
6.66179766e-07
3.18885645e-10
6.66116564e-07
3.13203188e-10
6.66055368e-07
3.07229492e-10
6.65996184e-07
3.00991359e-10
6.65939015e-07
2.94514035e-10
6.65883862e-07
2.878219e-10
6.65830724e-07
2.80938461e-10
6.657796e-07
2.7388577e-10
6.65730492e-07
2.66684693e-10
6.65683399e-07
2.59354329e-10
6.65638327e-07
2.5191201e-10
6.65595278e-07
2.44372511e-10
6.6555426e-07
2.36748333e-10
6.65515284e-07
2.29048211e-10
6.65478365e-07
2.21280124e-10
6.65443529e-07
2.1342958e-10
6.65410806e-07
2.05548771e-10
6.6538031e-07
1.97300542e-10
6.65351992e-07
1.90024974e-10
1.76764639e-10
6.66624876e-07
1.75815997e-10
6.66470516e-07
5.69714041e-10
6.6620324e-07
9.72749857e-10
6.65832233e-07
1.34517716e-09
6.65374423e-07
1.6530302e-09
6.64853777e-07
1.86942913e-09
6.64298412e-07
1.97830879e-09
6.63736852e-07
1.97786267e-09
6.63195305e-07
1.87824415e-09
6.62696934e-07
1.69407329e-09
6.62262212e-07
1.43945861e-09
6.619083e-07
1.13092004e-09
6.61646108e-07
7.95006127e-10
6.61475383e-07
4.7264072e-10
6.61379836e-07
2.14465516e-10
6.61324576e-07
6.68829577e-11
6.61286559e-07
5.82683794e-11
6.6123952e-07
1.9337767e-10
6.61140344e-07
4.61553317e-10
6.60958165e-07
8.21889265e-10
6.60682579e-07
1.22215966e-09
6.60317581e-07
1.61111541e-09
6.59877455e-07
1.94368484e-09
6.59384649e-07
2.18659144e-09
6.58865969e-07
2.32100931e-09
6.58348842e-07
2.34105614e-09
6.5785901e-07
2.25122786e-09
6.57419217e-07
2.06437724e-09
6.57048201e-07
1.80052969e-09
6.56759524e-07
1.48663789e-09
6.56559994e-07
1.15672832e-09
6.56447912e-07
8.51065515e-10
6.5641179e-07
6.1290457e-10
6.56430298e-07
4.82321315e-10
6.56473726e-07
4.87961509e-10
6.5650857e-07
6.39835409e-10
6.5650332e-07
9.24792323e-10
6.56434311e-07
1.30711535e-09
6.56290019e-07
1.73553531e-09
6.56072512e-07
2.15490068e-09
6.55795553e-07
2.51898935e-09
6.55479904e-07
2.80040393e-09
6.55147345e-07
2.99446754e-09
6.54815336e-07
3.11621214e-09
6.54493865e-07
3.19209948e-09
6.54185078e-07
3.24994336e-09
6.53885235e-07
3.3107702e-09
6.53587778e-07
3.38501942e-09
6.53286173e-07
3.47332618e-09
6.52975647e-07
3.57026756e-09
6.52653622e-07
3.66871949e-09
6.52319216e-07
3.76294933e-09
6.51972429e-07
3.84973771e-09
6.51613467e-07
3.9279167e-09
6.51242451e-07
3.997238e-09
6.50859429e-07
4.05738791e-09
6.50464559e-07
4.10752829e-09
6.50058267e-07
4.14632201e-09
6.49641346e-07
4.17218962e-09
6.49214969e-07
4.18356324e-09
6.48780653e-07
4.17902684e-09
6.48340226e-07
4.15734883e-09
6.47895792e-07
4.11746185e-09
6.4744971e-07
4.0584424e-09
6.47004575e-07
3.97950519e-09
6.46563192e-07
3.88001549e-09
6.46128551e-07
3.7595062e-09
6.45703801e-07
3.61768295e-09
6.45292219e-07
3.45443644e-09
6.44897191e-07
3.26984421e-09
6.44522188e-07
3.06416471e-09
6.44170746e-07
2.83783859e-09
6.43846452e-07
2.59147955e-09
6.43552918e-07
2.32585623e-09
6.43293731e-07
2.04188247e-09
6.43072288e-07
1.74061327e-09
6.42891942e-07
1.42326231e-09
6.4275601e-07
1.09116307e-09
6.42667841e-07
7.4552263e-10
6.4263141e-07
3.8732706e-10
6.42652834e-07
1.76462312e-11
6.42728872e-07
-3.56467688e-10
6.42865099e-07
-7.37995745e-10
6.430627e-07
-1.12376114e-09
6.43323015e-07
-1.51179768e-09
6.43646704e-07
-1.8995098e-09
6.44033803e-07
-2.28423334e-09
6.44483782e-07
-2.66311485e-09
6.4499547e-07
-3.03310108e-09
6.45567009e-07
-3.3910275e-09
6.46195855e-07
-3.73367127e-09
6.46878794e-07
-4.05781388e-09
6.47611976e-07
-4.36031274e-09
6.48390958e-07
-4.6381919e-09
6.49210761e-07
-4.88872867e-09
6.50065932e-07
-5.10952847e-09
6.5095062e-07
-5.29860457e-09
6.51858667e-07
-5.45443672e-09
6.527837e-07
-5.57600365e-09
6.53719251e-07
-5.66281389e-09
6.54658861e-07
-5.71491098e-09
6.55596205e-07
-5.73285239e-09
6.5652519e-07
-5.71769155e-09
6.57440059e-07
-5.67093057e-09
6.58335472e-07
-5.59447318e-09
6.59206572e-07
-5.49055221e-09
6.60049039e-07
-5.36167643e-09
6.60859117e-07
-5.21054557e-09
6.61633635e-07
-5.03999016e-09
6.62370007e-07
-4.85289784e-09
6.63066219e-07
-4.65215507e-09
6.63720801e-07
-4.44058147e-09
6.64332798e-07
-4.22088712e-09
6.64901721e-07
-3.99562836e-09
6.65427503e-07
-3.76716344e-09
6.6591047e-07
-3.53762877e-09
6.66351349e-07
-3.30890375e-09
6.66751281e-07
-3.08259108e-09
6.67111674e-07
-2.86009403e-09
6.67434122e-07
-2.64265817e-09
6.67720358e-07
-2.43134894e-09
6.67972214e-07
-2.22704641e-09
6.68191595e-07
-2.03044881e-09
6.68380484e-07
-1.84208857e-09
6.68540854e-07
-1.66235731e-09
6.68674629e-07
-1.49150204e-09
6.68783733e-07
-1.32962327e-09
6.6887006e-07
-1.17671039e-09
6.68935461e-07
-1.03267015e-09
6.68981729e-07
-8.97344688e-10
6.69010601e-07
-7.7053019e-10
6.69023781e-07
-6.5200711e-10
6.69022922e-07
-5.4147832e-10
6.69009608e-07
-4.38589344e-10
6.68985373e-07
-3.4298508e-10
6.68951669e-07
-2.5428835e-10
6.68909755e-07
-1.72091292e-10
6.68860439e-07
-9.59172516e-11
6.68803207e-07
-2.48219411e-11
6.68739603e-07
3.82023362e-11
6.6867229e-07
9.42250237e-11
6.68601601e-07
1.44409844e-10
6.68526362e-07
1.88268453e-10
6.68446904e-07
2.26453864e-10
6.68363859e-07
2.59930352e-10
6.68277802e-07
2.89338834e-10
6.68189283e-07
3.15088864e-10
6.6809884e-07
3.37555986e-10
6.68006968e-07
3.57087947e-10
6.67914117e-07
3.73976693e-10
6.67820696e-07
3.88467045e-10
6.67727075e-07
4.00765865e-10
6.67633582e-07
4.11045816e-10
6.67540506e-07
4.19454986e-10
6.67448101e-07
4.26127389e-10
6.67356582e-07
4.31188875e-10
6.67266135e-07
4.34760603e-10
6.67176915e-07
4.36960146e-10
6.67089055e-07
4.37901084e-10
6.67002666e-07
4.37693329e-10
6.66917846e-07
4.36441812e-10
6.66834676e-07
4.34245992e-10
6.66753231e-07
4.31198198e-10
6.66673574e-07
4.27384064e-10
6.66595761e-07
4.22881009e-10
6.66519841e-07
4.17759032e-10
6.66445858e-07
4.12080582e-10
6.66373847e-07
4.05901513e-10
6.66303837e-07
3.9927106e-10
6.66235853e-07
3.92233267e-10
6.6616991e-07
3.84827815e-10
6.66106023e-07
3.77090234e-10
6.660442e-07
3.69053248e-10
6.65984444e-07
3.60747335e-10
6.65926757e-07
3.52200559e-10
6.6587114e-07
3.43439375e-10
6.65817589e-07
3.34488685e-10
6.65766104e-07
3.25371266e-10
6.6571668e-07
3.16108218e-10
6.65669316e-07
3.06718389e-10
6.6562401e-07
2.97218449e-10
6.6558076e-07
2.87622035e-10
6.65539569e-07
2.77940136e-10
6.65500437e-07
2.68179464e-10
6.65463371e-07
2.58346403e-10
6.65428378e-07
2.48422567e-10
6.65395448e-07
2.38478912e-10
6.65364619e-07
2.28129788e-10
6.65335457e-07
2.19186184e-10
2.03172515e-10
6.66613477e-07
2.29039232e-10
6.6645203e-07
7.31160846e-10
6.66180742e-07
1.24403809e-09
6.65809404e-07
1.71651455e-09
6.65355005e-07
2.10742975e-09
6.64840166e-07
2.38426819e-09
6.64291325e-07
2.52714926e-09
6.63735681e-07
2.53350727e-09
6.63198421e-07
2.41550381e-09
6.62701682e-07
2.19081268e-09
6.62264673e-07
1.87646736e-09
6.61903258e-07
1.49233522e-09
6.61627815e-07
1.07044903e-09
6.61440284e-07
6.60171159e-10
6.61332434e-07
3.22316396e-10
6.61283059e-07
1.16257446e-10
6.61250955e-07
9.03723582e-11
6.61188607e-07
2.55725404e-10
6.61069943e-07
5.80217463e-10
6.60876204e-07
1.01562874e-09
6.60597862e-07
1.50050181e-09
6.60237784e-07
1.97119308e-09
6.59808703e-07
2.37276589e-09
6.59330205e-07
2.6650888e-09
6.58826182e-07
2.82503317e-09
6.58322047e-07
2.845191e-09
6.57842408e-07
2.7308666e-09
6.57409505e-07
2.49728007e-09
6.57042016e-07
2.16801901e-09
6.56753748e-07
1.77490616e-09
6.56552006e-07
1.35846952e-09
6.56435826e-07
9.67246388e-10
6.56394629e-07
6.5410149e-10
6.56408082e-07
4.68867662e-10
6.56447713e-07
4.48330411e-10
6.56481312e-07
6.06236371e-10
6.56478725e-07
9.27379742e-10
6.56417053e-07
1.36878702e-09
6.56284468e-07
1.86812105e-09
6.56081663e-07
2.35770486e-09
6.55820391e-07
2.78026187e-09
6.55519381e-07
3.10141362e-09
6.55198926e-07
3.31492278e-09
6.54875832e-07
3.4393062e-09
6.5456024e-07
3.50769117e-09
6.54254987e-07
3.55519609e-09
6.53957185e-07
3.60857299e-09
6.53660958e-07
3.6812461e-09
6.5336012e-07
3.77416416e-09
6.53049902e-07
3.88048543e-09
6.52727501e-07
3.99112043e-09
6.52391733e-07
4.09871759e-09
6.52042324e-07
4.19914673e-09
6.516793e-07
4.29094055e-09
6.51302688e-07
4.37384995e-09
6.5091251e-07
4.44756627e-09
6.50508927e-07
4.51111129e-09
6.50092395e-07
4.56285359e-09
6.49663754e-07
4.60083101e-09
6.49224241e-07
4.62307649e-09
6.48775467e-07
4.62780079e-09
6.48319379e-07
4.61343648e-09
6.47858228e-07
4.57861316e-09
6.47394539e-07
4.52213128e-09
6.46931089e-07
4.44295548e-09
6.46470873e-07
4.34023073e-09
6.46017075e-07
4.21330405e-09
6.45573028e-07
4.06173082e-09
6.45142178e-07
3.8852859e-09
6.44728063e-07
3.68395957e-09
6.44334284e-07
3.4579432e-09
6.43964498e-07
3.20762456e-09
6.43622402e-07
2.93357543e-09
6.43311724e-07
2.63653493e-09
6.430362e-07
2.31740575e-09
6.42799575e-07
1.97723894e-09
6.42605612e-07
1.6172255e-09
6.42458053e-07
1.23872203e-09
6.42360268e-07
8.43307151e-10
6.42314538e-07
4.33057518e-10
6.42320751e-07
1.1432328e-11
6.42388704e-07
-4.24420339e-10
6.42518055e-07
-8.6734671e-10
6.42711057e-07
-1.31676309e-09
6.42969079e-07
-1.76981983e-09
6.43293079e-07
-2.22350979e-09
6.43683403e-07
-2.67455759e-09
6.4413972e-07
-3.11943163e-09
6.44661003e-07
-3.5543838e-09
6.45245499e-07
-3.97552325e-09
6.45890708e-07
-4.37888022e-09
6.46593383e-07
-4.76048887e-09
6.47349545e-07
-5.11647546e-09
6.48154522e-07
-5.44316872e-09
6.49003e-07
-5.73720625e-09
6.49889099e-07
-5.99562756e-09
6.50806468e-07
-6.21597392e-09
6.51748396e-07
-6.39636407e-09
6.5270793e-07
-6.53553845e-09
6.53678016e-07
-6.63289984e-09
6.54651627e-07
-6.68852127e-09
6.55621894e-07
-6.70312018e-09
6.56582236e-07
-6.6780336e-09
6.57526462e-07
-6.61515663e-09
6.58448869e-07
-6.51687964e-09
6.59344312e-07
-6.38599481e-09
6.6020826e-07
-6.22562511e-09
6.61036831e-07
-6.03911645e-09
6.61826801e-07
-5.8299597e-09
6.62575601e-07
-5.60169823e-09
6.63281301e-07
-5.35785471e-09
6.6394257e-07
-5.10185123e-09
6.64558641e-07
-4.8369579e-09
6.65129255e-07
-4.56624211e-09
6.65654613e-07
-4.2925213e-09
6.66135325e-07
-4.01834098e-09
6.66572375e-07
-3.74595353e-09
6.66967093e-07
-3.47730912e-09
6.67321088e-07
-3.21408975e-09
6.67636166e-07
-2.95773547e-09
6.67914263e-07
-2.7094461e-09
6.68157409e-07
-2.4701927e-09
6.68367689e-07
-2.24072818e-09
6.68547208e-07
-2.02160786e-09
6.68698057e-07
-1.81320635e-09
6.68822293e-07
-1.61573824e-09
6.68921944e-07
-1.42927414e-09
6.68998994e-07
-1.25376061e-09
6.69055371e-07
-1.0890472e-09
6.69092933e-07
-9.34906331e-10
6.69113451e-07
-7.91048328e-10
6.69118578e-07
-6.5713415e-10
6.69109872e-07
-5.32771888e-10
6.69088817e-07
-4.17534852e-10
6.69056818e-07
-3.10986236e-10
6.69015213e-07
-2.12682978e-10
6.68965222e-07
-1.22099928e-10
6.68908172e-07
-3.88677439e-11
6.6884737e-07
3.59804073e-11
6.68781324e-07
1.04247972e-10
6.68710346e-07
1.65202921e-10
6.68635179e-07
2.19577314e-10
6.68555781e-07
2.67666533e-10
6.68472394e-07
3.09840573e-10
6.6838561e-07
3.46714277e-10
6.68296051e-07
3.78897636e-10
6.68204273e-07
4.06867204e-10
6.68110804e-07
4.3102514e-10
6.68016157e-07
4.51734355e-10
6.67920816e-07
4.69317958e-10
6.67825214e-07
4.84068862e-10
6.67729726e-07
4.96254029e-10
6.67634662e-07
5.06109607e-10
6.67540275e-07
5.13841759e-10
6.6744677e-07
5.19632442e-10
6.67354315e-07
5.23644327e-10
6.6726305e-07
5.26025271e-10
6.67173099e-07
5.2691148e-10
6.6708457e-07
5.2642999e-10
6.66997562e-07
5.24701425e-10
6.66912164e-07
5.21839773e-10
6.66828457e-07
5.17952601e-10
6.66746516e-07
5.13139682e-10
6.66666406e-07
5.07494201e-10
6.66588185e-07
5.011013e-10
6.66511905e-07
4.94038994e-10
6.66437608e-07
4.86377747e-10
6.66365328e-07
4.78181328e-10
6.66295093e-07
4.69506518e-10
6.66226922e-07
4.60404499e-10
6.66160828e-07
4.5092147e-10
6.6609682e-07
4.41098558e-10
6.660349e-07
4.30973124e-10
6.65975068e-07
4.20579242e-10
6.65917321e-07
4.0994746e-10
6.65861655e-07
3.99105789e-10
6.65808063e-07
3.88079887e-10
6.65756542e-07
3.76892561e-10
6.65707086e-07
3.65564497e-10
6.6565969e-07
3.54113829e-10
6.65614352e-07
3.42556424e-10
6.65571069e-07
3.30905038e-10
6.6552984e-07
3.19169843e-10
6.65490662e-07
3.07356913e-10
6.65453536e-07
2.95472538e-10
6.65418462e-07
2.83497143e-10
6.65385431e-07
2.71509948e-10
6.65354497e-07
2.59062929e-10
6.65325511e-07
2.48172463e-10
2.28831306e-10
6.66620207e-07
2.75532186e-10
6.66465564e-07
8.85804139e-10
6.66198849e-07
1.51075283e-09
6.65826873e-07
2.08849099e-09
6.65365451e-07
2.56885114e-09
6.64837675e-07
2.91204427e-09
6.64271465e-07
3.09335983e-09
6.63696248e-07
3.10872388e-09
6.6313991e-07
2.9718416e-09
6.62627465e-07
2.70325825e-09
6.62180909e-07
2.3230228e-09
6.61818391e-07
1.85485347e-09
6.61551523e-07
1.33731733e-09
6.61381038e-07
8.30655429e-10
6.61291695e-07
4.11660136e-10
6.61251903e-07
1.56049486e-10
6.61232277e-07
1.09998271e-10
6.61201147e-07
2.86854863e-10
6.61115182e-07
6.66183092e-10
6.60945207e-07
1.18560365e-09
6.60678147e-07
1.7675612e-09
6.60315768e-07
2.3335725e-09
6.59872269e-07
2.81626512e-09
6.59370503e-07
3.16685481e-09
6.58838205e-07
3.35733079e-09
6.58304719e-07
3.3786772e-09
6.57798438e-07
3.23714784e-09
6.57344989e-07
2.95072894e-09
6.5696579e-07
2.54721752e-09
6.56676517e-07
2.06417889e-09
6.56485257e-07
1.54973024e-09
6.56390548e-07
1.06195538e-09
6.56379998e-07
6.64651388e-10
6.56430502e-07
4.18363684e-10
6.56510799e-07
3.68032983e-10
6.5658552e-07
5.31515566e-10
6.56620437e-07
8.92462608e-10
6.56588942e-07
1.40028186e-09
6.56477069e-07
1.97999417e-09
6.56285349e-07
2.5494248e-09
6.56027034e-07
3.03857732e-09
6.55723326e-07
3.40512127e-09
6.55397186e-07
3.6410634e-09
6.55067644e-07
3.76884823e-09
6.54746252e-07
3.82908307e-09
6.54436369e-07
3.86507873e-09
6.54134907e-07
3.91003544e-09
6.53835358e-07
3.9807948e-09
6.53530765e-07
4.07875737e-09
6.53215662e-07
4.19558812e-09
6.52886724e-07
4.3200584e-09
6.52542421e-07
4.44302033e-09
6.52182265e-07
4.55930281e-09
6.51806143e-07
4.6670631e-09
6.51413982e-07
4.7660102e-09
6.51005739e-07
4.85581001e-09
6.50581541e-07
4.93530874e-09
6.50141859e-07
5.00253599e-09
6.49687593e-07
5.05509671e-09
6.49220094e-07
5.09057512e-09
6.48741131e-07
5.10676472e-09
6.48252841e-07
5.10172614e-09
6.47757696e-07
5.07375796e-09
6.47258464e-07
5.02136369e-09
6.46758177e-07
4.94324191e-09
6.46260105e-07
4.83830306e-09
6.45767717e-07
4.70569235e-09
6.45284653e-07
4.54479494e-09
6.44814692e-07
4.35524679e-09
6.44361721e-07
4.13693016e-09
6.43929705e-07
3.88995916e-09
6.43522654e-07
3.61467612e-09
6.43144591e-07
3.31163792e-09
6.4279953e-07
2.98159561e-09
6.4249145e-07
2.62548584e-09
6.42224269e-07
2.24442019e-09
6.42001814e-07
1.83968079e-09
6.41827798e-07
1.41273726e-09
6.41705877e-07
9.65228684e-10
6.41639935e-07
4.989994e-10
6.41635251e-07
1.61163673e-11
6.41691791e-07
-4.80960205e-10
6.41813908e-07
-9.89463764e-10
6.42003728e-07
-1.50658323e-09
6.4226313e-07
-2.029222e-09
6.42593416e-07
-2.55379508e-09
6.4299524e-07
-3.07638249e-09
6.43468558e-07
-3.59274923e-09
6.44012544e-07
-4.09836981e-09
6.44625532e-07
-4.58851093e-09
6.45304972e-07
-5.05832094e-09
6.46047424e-07
-5.50294067e-09
6.46848565e-07
-5.91761656e-09
6.47703236e-07
-6.29783943e-09
6.48605508e-07
-6.63947806e-09
6.49548776e-07
-6.93889568e-09
6.50525875e-07
-7.19307336e-09
6.51529216e-07
-7.39970518e-09
6.52550934e-07
-7.55725617e-09
6.53583049e-07
-7.66501434e-09
6.54617629e-07
-7.72310185e-09
6.55646953e-07
-7.73244356e-09
6.56663652e-07
-7.69473267e-09
6.57660846e-07
-7.61235093e-09
6.58632251e-07
-7.48828474e-09
6.59572261e-07
-7.32600516e-09
6.6047601e-07
-7.12937326e-09
6.61339397e-07
-6.9025043e-09
6.62159105e-07
-6.64966752e-09
6.62932578e-07
-6.37517131e-09
6.63657996e-07
-6.08327262e-09
6.64334226e-07
-5.77808124e-09
6.64960767e-07
-5.46349902e-09
6.65537688e-07
-5.14316228e-09
6.66065557e-07
-4.82039114e-09
6.66545386e-07
-4.49816977e-09
6.66978563e-07
-4.17913045e-09
6.673668e-07
-3.86554627e-09
6.67712064e-07
-3.55935387e-09
6.68016504e-07
-3.26217476e-09
6.68282387e-07
-2.97532926e-09
6.68512055e-07
-2.69986098e-09
6.68707882e-07
-2.43655502e-09
6.68872239e-07
-2.18596509e-09
6.69007468e-07
-1.948435e-09
6.69115857e-07
-1.72412709e-09
6.69199627e-07
-1.51304474e-09
6.6926092e-07
-1.31505358e-09
6.69301782e-07
-1.12990905e-09
6.69324154e-07
-9.57278683e-10
6.69329866e-07
-7.96760325e-10
6.69320632e-07
-6.47899915e-10
6.69298063e-07
-5.10202367e-10
6.69263675e-07
-3.83146911e-10
6.69218917e-07
-2.66228878e-10
6.69165302e-07
-1.59067798e-10
6.69104605e-07
-6.1403239e-11
6.69038113e-07
2.76247718e-11
6.68964972e-07
1.09121523e-10
6.68887108e-07
1.82111535e-10
6.68804856e-07
2.47455533e-10
6.68718884e-07
3.05549067e-10
6.68629692e-07
3.5685873e-10
6.68537665e-07
4.0186704e-10
6.68443262e-07
4.41117204e-10
6.68346985e-07
4.75175043e-10
6.68249301e-07
5.04550614e-10
6.68150628e-07
5.29698665e-10
6.68051329e-07
5.51032967e-10
6.67951729e-07
5.68918104e-10
6.67852129e-07
5.83669216e-10
6.6775282e-07
5.95562666e-10
6.67654083e-07
6.04846455e-10
6.67556177e-07
6.11747742e-10
6.67459333e-07
6.16476429e-10
6.67363751e-07
6.19226787e-10
6.67269597e-07
6.20179234e-10
6.67177008e-07
6.19500021e-10
6.67086096e-07
6.17342022e-10
6.66996951e-07
6.13846561e-10
6.66909647e-07
6.0914384e-10
6.66824245e-07
6.03354504e-10
6.66740796e-07
5.96588941e-10
6.66659341e-07
5.88949015e-10
6.66579916e-07
5.80526765e-10
6.66502549e-07
5.71405994e-10
6.66427264e-07
5.61662199e-10
6.66354082e-07
5.51363756e-10
6.66283017e-07
5.40571579e-10
6.66214081e-07
5.29340662e-10
6.66147281e-07
5.17720729e-10
6.66082624e-07
5.05756082e-10
6.6602011e-07
4.93487034e-10
6.65959739e-07
4.80950377e-10
6.65901507e-07
4.68179009e-10
6.6584541e-07
4.55202985e-10
6.6579144e-07
4.42049647e-10
6.6573959e-07
4.28743015e-10
6.6568985e-07
4.15304594e-10
6.65642211e-07
4.01752884e-10
6.65596663e-07
3.88103758e-10
6.65553199e-07
3.74369627e-10
6.65511808e-07
3.60560266e-10
6.65472484e-07
3.46681309e-10
6.65435217e-07
3.3273975e-10
6.65399999e-07
3.18714554e-10
6.65366804e-07
3.04705048e-10
6.65335652e-07
2.90214752e-10
6.6530614e-07
2.77684802e-10
2.55666337e-10
6.66619259e-07
3.22873046e-10
6.66463245e-07
1.04181798e-09
6.66194522e-07
1.77947617e-09
6.65820282e-07
2.46273048e-09
6.65356521e-07
3.03261263e-09
6.6482636e-07
3.44220522e-09
6.6425757e-07
3.66215027e-09
6.63679289e-07
3.68700493e-09
6.63119166e-07
3.53196376e-09
6.62602001e-07
3.22042415e-09
6.6214941e-07
2.77561373e-09
6.61779159e-07
2.22510381e-09
6.61502316e-07
1.61416078e-09
6.61319826e-07
1.01314483e-09
6.61219495e-07
5.11991954e-10
6.61179286e-07
1.96257672e-10
6.61160675e-07
1.2860995e-10
6.61122209e-07
3.25320723e-10
6.61030743e-07
7.57648995e-10
6.60860094e-07
1.35625221e-09
6.60596838e-07
2.03081784e-09
6.60241108e-07
2.68930187e-09
6.59805169e-07
3.25220449e-09
6.59310356e-07
3.66166739e-09
6.58783456e-07
3.88423119e-09
6.58253375e-07
3.90875829e-09
6.57748515e-07
3.74200814e-09
6.57294864e-07
3.4043801e-09
6.5691447e-07
2.92761062e-09
6.56623842e-07
2.35480688e-09
6.56432037e-07
1.7415354e-09
6.56338681e-07
1.15531215e-09
6.56332556e-07
6.70776261e-10
6.5639144e-07
3.59479208e-10
6.56483489e-07
2.75984325e-10
6.56571728e-07
4.43275931e-10
6.56621469e-07
8.4272161e-10
6.56605965e-07
1.4157867e-09
6.56510718e-07
2.07524086e-09
6.56335359e-07
2.72478368e-09
6.56092214e-07
3.2817227e-09
6.55801875e-07
3.69545973e-09
6.5548714e-07
3.95579831e-09
6.55167244e-07
4.08874494e-09
6.548541e-07
4.14222623e-09
6.54551381e-07
4.16779841e-09
6.54256119e-07
4.205297e-09
6.53961721e-07
4.27519289e-09
6.53660986e-07
4.37949254e-09
6.5334814e-07
4.50843409e-09
6.53019555e-07
4.64864329e-09
6.52673445e-07
4.78913041e-09
6.52309119e-07
4.92362902e-09
6.51926309e-07
5.04987278e-09
6.51524831e-07
5.16748799e-09
6.51104565e-07
5.27607619e-09
6.50665608e-07
5.37426543e-09
6.50208446e-07
5.45969857e-09
6.49734046e-07
5.52949633e-09
6.49243879e-07
5.58074222e-09
6.48739882e-07
5.6107622e-09
6.4822441e-07
5.6171978e-09
6.47700194e-07
5.59797348e-09
6.471703e-07
5.55125827e-09
6.46638086e-07
5.47545537e-09
6.46107166e-07
5.36922395e-09
6.4558135e-07
5.23150818e-09
6.45064601e-07
5.06154414e-09
6.44560979e-07
4.85886831e-09
6.44074605e-07
4.62330383e-09
6.43609632e-07
4.35493205e-09
6.43170231e-07
4.05407737e-09
6.42760584e-07
3.72128549e-09
6.42384878e-07
3.35730097e-09
6.420473e-07
2.96306425e-09
6.41752013e-07
2.53970684e-09
6.41503146e-07
2.08854824e-09
6.41304773e-07
1.61110983e-09
6.41160873e-07
1.10912894e-09
6.41075063e-07
5.8480921e-10
6.41050372e-07
4.080742e-11
6.41091744e-07
-5.22332473e-10
6.41201864e-07
-1.09958378e-09
6.41383668e-07
-1.68838694e-09
6.41639459e-07
-2.2850125e-09
6.41970969e-07
-2.88530606e-09
6.42379255e-07
-3.48466768e-09
6.42864591e-07
-4.07808515e-09
6.43426395e-07
-4.66017414e-09
6.44063151e-07
-5.22526711e-09
6.44772348e-07
-5.76751772e-09
6.45550444e-07
-6.28103718e-09
6.46392864e-07
-6.76003629e-09
6.47294025e-07
-7.19900012e-09
6.48247406e-07
-7.59285955e-09
6.49245655e-07
-7.93714424e-09
6.50280724e-07
-8.22814229e-09
6.51344043e-07
-8.46302475e-09
6.5242671e-07
-8.6399231e-09
6.5351969e-07
-8.75799439e-09
6.54614023e-07
-8.81743416e-09
6.55701014e-07
-8.81943525e-09
6.5677242e-07
-8.76613881e-09
6.57820599e-07
-8.66052968e-09
6.58838639e-07
-8.50632478e-09
6.59820453e-07
-8.30781908e-09
6.60760841e-07
-8.06976062e-09
6.61655516e-07
-7.79717995e-09
6.62501111e-07
-7.49526219e-09
6.63295145e-07
-7.16920539e-09
6.64035982e-07
-6.82410947e-09
6.64722763e-07
-6.46486277e-09
6.65355335e-07
-6.09607114e-09
6.65934167e-07
-5.72199363e-09
6.66460264e-07
-5.34648865e-09
6.66935091e-07
-4.97299651e-09
6.67360488e-07
-4.60452705e-09
6.67738597e-07
-4.24365568e-09
6.68071791e-07
-3.89254775e-09
6.68362598e-07
-3.55298227e-09
6.68613643e-07
-3.22637376e-09
6.6882759e-07
-2.91380789e-09
6.69007103e-07
-2.61606839e-09
6.6915481e-07
-2.33367224e-09
6.69273273e-07
-2.06689777e-09
6.69364967e-07
-1.81582091e-09
6.69432267e-07
-1.58034507e-09
6.69477442e-07
-1.36022813e-09
6.69502646e-07
-1.15511331e-09
6.69509921e-07
-9.64553475e-10
6.69501192e-07
-7.88031502e-10
6.69478275e-07
-6.24982854e-10
6.69442888e-07
-4.748152e-10
6.69396654e-07
-3.36913318e-10
6.69341004e-07
-2.10578837e-10
6.69276782e-07
-9.4845915e-11
6.6920371e-07
1.16691232e-11
6.69125628e-07
1.05706694e-10
6.69043033e-07
1.91716565e-10
6.68956189e-07
2.68954944e-10
6.68865742e-07
3.37902589e-10
6.68772204e-07
3.99087804e-10
6.6867602e-07
4.53042185e-10
6.68577586e-07
5.0030092e-10
6.68477299e-07
5.41404174e-10
6.68375577e-07
5.76897142e-10
6.68272836e-07
6.07292355e-10
6.68169482e-07
6.33051957e-10
6.68065918e-07
6.54597275e-10
6.67962519e-07
6.72317354e-10
6.67859613e-07
6.8657438e-10
6.67757474e-07
6.97701845e-10
6.67656322e-07
7.05999043e-10
6.67556339e-07
7.11730847e-10
6.67457681e-07
7.15134215e-10
6.67360483e-07
7.16424463e-10
6.67264864e-07
7.15798173e-10
6.67170929e-07
7.1343553e-10
6.67078769e-07
7.09501642e-10
6.66988466e-07
7.04149559e-10
6.6690009e-07
6.97520391e-10
6.668137e-07
6.89744482e-10
6.66729348e-07
6.80940638e-10
6.66647078e-07
6.71218569e-10
6.66566927e-07
6.60677709e-10
6.66488924e-07
6.49409051e-10
6.66413092e-07
6.37494962e-10
6.66339445e-07
6.25010376e-10
6.66267994e-07
6.12022261e-10
6.66198744e-07
5.98591185e-10
6.66131693e-07
5.84771817e-10
6.66066836e-07
5.70612532e-10
6.66004166e-07
5.56156853e-10
6.65943673e-07
5.41443892e-10
6.65885344e-07
5.26507949e-10
6.65829167e-07
5.11379798e-10
6.6577513e-07
4.96086978e-10
6.65723219e-07
4.80653263e-10
6.65673424e-07
4.65099733e-10
6.65625733e-07
4.49444363e-10
6.65580134e-07
4.33702564e-10
6.65536617e-07
4.17886374e-10
6.65495172e-07
4.02005407e-10
6.65455788e-07
3.86065532e-10
6.65418453e-07
3.7007448e-10
6.65383157e-07
3.54011116e-10
6.6534988e-07
3.37981982e-10
6.65318667e-07
3.21427869e-10
6.6528936e-07
3.06991538e-10
2.81638257e-10
6.66619085e-07
3.70488345e-10
6.66462664e-07
1.19823886e-09
6.66192578e-07
2.04956201e-09
6.65815004e-07
2.8403049e-09
6.65345115e-07
3.50250123e-09
6.64805845e-07
3.98147554e-09
6.64225583e-07
4.24241239e-09
6.63634696e-07
4.27789108e-09
6.63062279e-07
4.10438093e-09
6.6253454e-07
3.74816388e-09
6.62074441e-07
3.23571189e-09
6.61700869e-07
2.59867632e-09
6.61425714e-07
1.8893161e-09
6.61250058e-07
1.18880053e-09
6.61161403e-07
6.0064676e-10
6.61132241e-07
2.25419454e-10
6.61125753e-07
1.35098664e-10
6.61099333e-07
3.5173987e-10
6.61017406e-07
8.39575913e-10
6.60852078e-07
1.52158106e-09
6.60588908e-07
2.29398754e-09
6.60228133e-07