/*--------------------------------*- C++ -*----------------------------------*\
| =========                 |                                                 |
| \\      /  F ield         | OpenFOAM: The Open Source CFD Toolbox           |
|  \\    /   O peration     | Version:  v2012                                 |
|   \\  /    A nd           | Website:  www.openfoam.com                      |
|    \\/     M anipulation  |                                                 |
\*---------------------------------------------------------------------------*/
FoamFile
{
    version     2.0;
    format      ascii;
    class       surfaceScalarField;
    location    "2.39";
    object      phiHbyA;
}
// * * * * * * * * * * * * * * * * * * * * * * * * * * * * * * * * * * * * * //

dimensions      [0 3 -1 0 0 0 0];
oriented        oriented;


internalField   nonuniform List<scalar> 
56481
(
6.66602822e-07
1.29990003e-10
6.66428455e-07
4.1100718e-10
6.6614845e-07
7.00840494e-10
6.65775221e-07
9.69332518e-10
6.65327245e-07
1.190253e-09
6.64827112e-07
1.34372498e-09
6.64299621e-07
1.41782131e-09
6.63769301e-07
1.4111411e-09
6.63258289e-07
1.33151653e-09
6.62785754e-07
1.19050985e-09
6.62368326e-07
9.99527428e-10
6.62019976e-07
7.71764856e-10
6.61750431e-07
5.27518799e-10
6.61562928e-07
2.96593883e-10
6.61455055e-07
1.13776531e-10
6.6138526e-07
6.37009724e-12
6.61325271e-07
1.49583274e-11
6.61232339e-07
1.41169685e-10
6.61075197e-07
3.57597682e-10
6.60845081e-07
6.35365648e-10
6.60540044e-07
9.42578694e-10
6.60167396e-07
1.24244266e-09
6.597419e-07
1.50020813e-09
6.59282257e-07
1.69074126e-09
6.58808746e-07
1.79956838e-09
6.58341614e-07
1.82143905e-09
6.57899774e-07
1.75917266e-09
6.57499909e-07
1.62262824e-09
6.57155722e-07
1.42782931e-09
6.56876906e-07
1.19655085e-09
6.56667716e-07
9.56066316e-10
6.56525522e-07
7.38125935e-10
6.56440388e-07
5.7619161e-10
6.56396036e-07
5.0049742e-10
6.56367328e-07
5.31321043e-10
6.56329183e-07
6.74859828e-10
6.56259494e-07
9.19949703e-10
6.56142487e-07
1.23872641e-09
6.5597132e-07
1.59206665e-09
6.55748625e-07
1.93841315e-09
6.55484685e-07
2.24324272e-09
6.55193932e-07
2.48615444e-09
6.54890887e-07
2.66349148e-09
6.54586797e-07
2.78596564e-09
6.54287845e-07
2.87255994e-09
6.53995165e-07
2.94324323e-09
6.5370624e-07
3.01315279e-09
6.53416885e-07
3.08990533e-09
6.53122993e-07
3.17415845e-09
6.52821554e-07
3.26224866e-09
6.52510888e-07
3.34924562e-09
6.52190325e-07
3.43111654e-09
6.51859727e-07
3.50551868e-09
6.51519109e-07
3.57149564e-09
6.51168484e-07
3.62871157e-09
6.5080789e-07
3.67678568e-09
6.50437507e-07
3.71498541e-09
6.50057757e-07
3.74224916e-09
6.49669363e-07
3.75736459e-09
6.49273362e-07
3.75914382e-09
6.48871087e-07
3.74652067e-09
6.48464152e-07
3.71857463e-09
6.48054426e-07
3.67451845e-09
6.47644025e-07
3.61368589e-09
6.47235285e-07
3.53552839e-09
6.46830744e-07
3.43962476e-09
6.46433106e-07
3.3256947e-09
6.46045219e-07
3.19360326e-09
6.45670042e-07
3.04337351e-09
6.4531063e-07
2.87519101e-09
6.4497012e-07
2.68940134e-09
6.44651727e-07
2.48651302e-09
6.44358748e-07
2.26718862e-09
6.44094566e-07
2.03222524e-09
6.43862661e-07
1.7825126e-09
6.43666715e-07
1.51891664e-09
6.43510262e-07
1.24260939e-09
6.43396312e-07
9.54889053e-10
6.43327199e-07
6.56990146e-10
6.43304243e-07
3.5051709e-10
6.43327377e-07
3.86815272e-11
6.43408984e-07
-2.80800238e-10
6.43548253e-07
-6.02104704e-10
6.43746057e-07
-9.26436044e-10
6.44002745e-07
-1.25169357e-09
6.44318589e-07
-1.57595508e-09
6.44693456e-07
-1.89717757e-09
6.45126634e-07
-2.21307743e-09
6.45616825e-07
-2.52124592e-09
6.46162134e-07
-2.81920677e-09
6.46760056e-07
-3.1044263e-09
6.47407513e-07
-3.37435745e-09
6.48100896e-07
-3.62649799e-09
6.48836127e-07
-3.85846683e-09
6.49608706e-07
-4.06808059e-09
6.50413766e-07
-4.25342036e-09
6.51246129e-07
-4.41289926e-09
6.52100368e-07
-4.54530846e-09
6.52970875e-07
-4.64983862e-09
6.53851949e-07
-4.72609971e-09
6.54737886e-07
-4.77412096e-09
6.55623071e-07
-4.79433187e-09
6.5650207e-07
-4.78754878e-09
6.57369713e-07
-4.75493932e-09
6.58221161e-07
-4.69798846e-09
6.59051971e-07
-4.61844395e-09
6.59858136e-07
-4.51827794e-09
6.60636121e-07
-4.39962149e-09
6.61382878e-07
-4.26471932e-09
6.62095852e-07
-4.11587249e-09
6.62772982e-07
-3.95539325e-09
6.63412677e-07
-3.785553e-09
6.64013791e-07
-3.60854877e-09
6.64575582e-07
-3.42646705e-09
6.65097644e-07
-3.2412414e-09
6.65579792e-07
-3.05461713e-09
6.66022266e-07
-2.86807068e-09
6.66426065e-07
-2.68279476e-09
6.66792408e-07
-2.49992163e-09
6.6712267e-07
-2.32051147e-09
6.67418344e-07
-2.1454904e-09
6.67680999e-07
-1.97563713e-09
6.67912252e-07
-1.81157629e-09
6.6811371e-07
-1.65376567e-09
6.68287037e-07
-1.50260855e-09
6.68433998e-07
-1.35840161e-09
6.68556378e-07
-1.22124789e-09
6.68655958e-07
-1.09116364e-09
6.68734493e-07
-9.68100181e-10
6.68793698e-07
-8.51955977e-10
6.68835229e-07
-7.42584506e-10
6.68860671e-07
-6.3979769e-10
6.6887151e-07
-5.43354003e-10
6.68869154e-07
-4.52969176e-10
6.6885498e-07
-3.68340661e-10
6.68830435e-07
-2.89176895e-10
6.68797155e-07
-2.15258505e-10
6.68757074e-07
-1.46550328e-10
6.68712514e-07
-8.34088171e-11
6.68665825e-07
-2.67287993e-11
6.68615922e-07
2.56859414e-11
6.68559294e-07
7.26044437e-11
6.68494874e-07
1.11988589e-10
6.68424332e-07
1.45996081e-10
6.68348746e-07
1.75910859e-10
6.68269041e-07
2.02331995e-10
6.68186027e-07
2.25646234e-10
6.68100416e-07
2.46214479e-10
6.68012856e-07
2.64344527e-10
6.67923936e-07
2.80281986e-10
6.67834179e-07
2.94230963e-10
6.67744039e-07
3.06358738e-10
6.67653893e-07
3.16797068e-10
6.67564053e-07
3.25654084e-10
6.67474765e-07
3.33026132e-10
6.67386227e-07
3.39003732e-10
6.67298598e-07
3.4367545e-10
6.67212013e-07
3.47130084e-10
6.67126589e-07
3.49457037e-10
6.67042432e-07
3.50746432e-10
6.66959641e-07
3.51087333e-10
6.66878308e-07
3.50566382e-10
6.66798519e-07
3.49265535e-10
6.66720357e-07
3.47261637e-10
6.66643896e-07
3.44624523e-10
6.66569203e-07
3.41417181e-10
6.66496339e-07
3.37695359e-10
6.66425353e-07
3.33508308e-10
6.66356286e-07
3.28898895e-10
6.6628917e-07
3.23905044e-10
6.6622403e-07
3.18560721e-10
6.66160882e-07
3.12896398e-10
6.66099738e-07
3.06940403e-10
6.66040602e-07
3.00719551e-10
6.65983477e-07
2.94259107e-10
6.65928365e-07
2.87583471e-10
6.65875265e-07
2.80716174e-10
6.65824176e-07
2.73679296e-10
6.65775099e-07
2.66493733e-10
6.65728036e-07
2.59178617e-10
6.65682989e-07
2.51751309e-10
6.65639963e-07
2.44226622e-10
6.65598964e-07
2.36617095e-10
6.65560005e-07
2.28931514e-10
6.65523099e-07
2.21177935e-10
6.65488273e-07
2.13341988e-10
6.65455553e-07
2.05476157e-10
6.65425068e-07
1.97243731e-10
6.65396691e-07
1.89986595e-10
1.76748111e-10
6.6662576e-07
1.7163493e-10
6.66472683e-07
5.65645771e-10
6.66206739e-07
9.68785375e-10
6.65836894e-07
1.34126759e-09
6.65380142e-07
1.64914908e-09
6.64860555e-07
1.86556833e-09
6.64306263e-07
1.97446404e-09
6.63745767e-07
1.9740316e-09
6.63205262e-07
1.87442861e-09
6.62707914e-07
1.69028071e-09
6.62274196e-07
1.43570418e-09
6.61921263e-07
1.12723141e-09
6.61660036e-07
7.91427519e-10
6.61490343e-07
4.69219266e-10
6.61396182e-07
2.11170253e-10
6.61341318e-07
6.33655891e-11
6.61303886e-07
5.48155782e-11
6.61257853e-07
1.90204784e-10
6.61159549e-07
4.58445071e-10
6.60978202e-07
8.18828738e-10
6.60703451e-07
1.2191923e-09
6.60339256e-07
1.60826887e-09
6.59899896e-07
1.94098493e-09
6.59407829e-07
2.18406467e-09
6.58889855e-07
2.31867595e-09
6.58373393e-07
2.33893081e-09
6.57884181e-07
2.24932192e-09
6.5744496e-07
2.06269893e-09
6.57074467e-07
1.79908428e-09
6.5678626e-07
1.48542851e-09
6.56587142e-07
1.15575709e-09
6.5647541e-07
8.50334901e-10
6.56439572e-07
6.12418961e-10
6.56458295e-07
4.82087603e-10
6.56501874e-07
4.8798703e-10
6.56536808e-07
6.40123664e-10
6.56531583e-07
9.25344895e-10
6.56462531e-07
1.30793109e-09
6.56318126e-07
1.73661063e-09
6.56100438e-07
2.1562298e-09
6.55823235e-07
2.52056375e-09
6.55507281e-07
2.80221226e-09
6.5517436e-07
2.9964958e-09
6.54841941e-07
3.11844417e-09
6.54520015e-07
3.19451727e-09
6.54210733e-07
3.25252739e-09
6.53910362e-07
3.31349958e-09
6.53612349e-07
3.38787195e-09
6.53310167e-07
3.4762784e-09
6.52999049e-07
3.57329491e-09
6.52676423e-07
3.67179659e-09
6.52341417e-07
3.7660503e-09
6.51994034e-07
3.85283655e-09
6.51634489e-07
3.93098772e-09
6.51262907e-07
4.00025615e-09
6.50879346e-07
4.06032911e-09
6.50483967e-07
4.11036973e-09
6.50077203e-07
4.14904243e-09
6.49659854e-07
4.17476953e-09
6.49233093e-07
4.18598515e-09
6.48798445e-07
4.18127541e-09
6.48357739e-07
4.15941101e-09
6.47913083e-07
4.119327e-09
6.47466839e-07
4.06010236e-09
6.47021601e-07
3.98095426e-09
6.46580177e-07
3.88125047e-09
6.46145555e-07
3.76052632e-09
6.45720884e-07
3.61848984e-09
6.4530944e-07
3.455034e-09
6.44914607e-07
3.27023853e-09
6.44539851e-07
3.06436384e-09
6.44188709e-07
2.8378524e-09
6.43864761e-07
2.59131944e-09
6.43571617e-07
2.32553493e-09
6.4331286e-07
2.04141372e-09
6.43091881e-07
1.74001135e-09
6.4291203e-07
1.42254134e-09
6.42776616e-07
1.09033677e-09
6.42688979e-07
7.44605803e-10
6.42653094e-07
3.86339534e-10
6.42675067e-07
1.66028815e-11
6.42751668e-07
-3.57541282e-10
6.42888451e-07
-7.39091338e-10
6.43086599e-07
-1.12486598e-09
6.43347453e-07
-1.51289299e-09
6.43671666e-07
-1.90058287e-09
6.44059269e-07
-2.2852729e-09
6.4450973e-07
-2.66411052e-09
6.45021876e-07
-3.03404403e-09
6.45593846e-07
-3.39191072e-09
6.46223095e-07
-3.73448976e-09
6.46906409e-07
-4.05856471e-09
6.47639938e-07
-4.36099514e-09
6.48419239e-07
-4.63880719e-09
6.49239335e-07
-4.88928018e-09
6.50094774e-07
-5.11002139e-09
6.50979709e-07
-5.29904572e-09
6.51887983e-07
-5.45483429e-09
6.52813228e-07
-5.57636685e-09
6.53748978e-07
-5.66315267e-09
6.54688779e-07
-5.71523563e-09
6.55626308e-07
-5.73317321e-09
6.56555476e-07
-5.71801855e-09
6.57470529e-07
-5.67127315e-09
6.58366129e-07
-5.59483987e-09
6.59237424e-07
-5.49095048e-09
6.60080092e-07
-5.36211255e-09
6.60890382e-07
-5.21102451e-09
6.61665124e-07
-5.04051555e-09
6.62401731e-07
-4.85347198e-09
6.6309819e-07
-4.65277898e-09
6.63753032e-07
-4.44125503e-09
6.64365301e-07
-4.22160917e-09
6.64934507e-07
-3.99639689e-09
6.65460585e-07
-3.76797582e-09
6.65943858e-07
-3.53848199e-09
6.66385052e-07
-3.30979459e-09
6.66785306e-07
-3.08351628e-09
6.67146027e-07
-2.86104995e-09
6.67468808e-07
-2.64364083e-09
6.67755378e-07
-2.43235436e-09
6.6800757e-07
-2.22807085e-09
6.68227287e-07
-2.03148889e-09
6.6841651e-07
-1.84314117e-09
6.68577211e-07
-1.66341895e-09
6.68711315e-07
-1.49256932e-09
6.68820743e-07
-1.33069326e-09
6.6890739e-07
-1.17778063e-09
6.68973103e-07
-1.03373863e-09
6.69019677e-07
-8.98409777e-10
6.69048844e-07
-7.71590487e-10
6.6906231e-07
-6.53060532e-10
6.69061724e-07
-5.42519874e-10
6.69048671e-07
-4.39611529e-10
6.69024684e-07
-3.43978288e-10
6.68991214e-07
-2.55241316e-10
6.68949525e-07
-1.72992159e-10
6.68900431e-07
-9.67550883e-11
6.68843441e-07
-2.56024254e-11
6.68780053e-07
3.74248138e-11
6.68712916e-07
9.34364457e-11
6.68642405e-07
1.43630121e-10
6.68567361e-07
1.8751403e-10
6.68488103e-07
2.2572836e-10
6.68405249e-07
2.5923122e-10
6.68319372e-07
2.88664379e-10
6.68231026e-07
3.14438602e-10
6.68140749e-07
3.36929149e-10
6.68049037e-07
3.56483345e-10
6.67956339e-07
3.73393045e-10
6.67863065e-07
3.8790315e-10
6.67769585e-07
4.00220744e-10
6.67676227e-07
4.10518816e-10
6.67583282e-07
4.18945761e-10
6.67491001e-07
4.25635825e-10
6.67399601e-07
4.30714996e-10
6.67309269e-07
4.34304479e-10
6.67220159e-07
4.3652182e-10
6.67132404e-07
4.37480518e-10
6.67046117e-07
4.37290387e-10
6.66961392e-07
4.36056264e-10
6.66878315e-07
4.33877532e-10
6.66796958e-07
4.30846463e-10
6.66717384e-07
4.27048655e-10
6.66639651e-07
4.2256151e-10
6.66563807e-07
4.1745503e-10
6.66489896e-07
4.11791674e-10
6.66417952e-07
4.05627319e-10
6.66348007e-07
3.99011221e-10
6.66280083e-07
3.91987453e-10
6.66214198e-07
3.8459572e-10
6.66150365e-07
3.76871577e-10
6.66088592e-07
3.68847775e-10
6.66028883e-07
3.60554809e-10
6.6597124e-07
3.52020766e-10
6.65915664e-07
3.43272117e-10
6.65862151e-07
3.3433378e-10
6.658107e-07
3.25228548e-10
6.65761308e-07
3.15977539e-10
6.65713972e-07
3.06599617e-10
6.65668691e-07
2.97111478e-10
6.65625464e-07
2.87526789e-10
6.65584291e-07
2.77856578e-10
6.65545177e-07
2.68107608e-10
6.65508123e-07
2.58286329e-10
6.65473142e-07
2.48374444e-10
6.65440215e-07
2.38442977e-10
6.65409401e-07
2.28106263e-10
6.65380185e-07
2.19174577e-10
2.03170795e-10
6.6661451e-07
2.23369159e-10
6.66454334e-07
7.25415527e-10
6.66184314e-07
1.2381941e-09
6.65814103e-07
1.71058353e-09
6.65360751e-07
2.10143607e-09
6.64846965e-07
2.37823562e-09
6.64299195e-07
2.5210971e-09
6.63744616e-07
2.52745117e-09
6.63208408e-07
2.40945664e-09
6.62712713e-07
2.18478345e-09
6.62276745e-07
1.87045926e-09
6.61916367e-07
1.48634317e-09
6.61641951e-07
1.06445776e-09
6.61455412e-07
6.54160875e-10
6.61348485e-07
3.16296188e-10
6.61299886e-07
1.10305551e-10
6.61268653e-07
8.45633097e-11
6.61207026e-07
2.50054047e-10
6.61089211e-07
5.74864597e-10
6.60896364e-07
1.01061397e-09
6.60618894e-07
1.49580382e-09
6.60259653e-07
1.96679162e-09
6.59831373e-07
2.36864826e-09
6.59353642e-07
2.66125019e-09
6.58850344e-07
2.82147229e-09
6.58346888e-07
2.84190942e-09
6.5786788e-07
2.72786925e-09
6.57435557e-07
2.49457448e-09
6.57068595e-07
2.16561417e-09
6.56780799e-07
1.77281153e-09
6.56579474e-07
1.35669368e-09
6.56463649e-07
9.65795238e-10
6.56422745e-07
6.52976884e-10
6.56436423e-07
4.68068049e-10
6.5647621e-07
4.47856341e-10
6.56509901e-07
6.06090823e-10
6.56507337e-07
9.27557846e-10
6.56445618e-07
1.36927772e-09
6.56312911e-07
1.86891249e-09
6.56109915e-07
2.35878523e-09
6.55848382e-07
2.7816188e-09
6.55547049e-07
3.10303362e-09
6.55226212e-07
3.31679074e-09
6.54902683e-07
3.44140478e-09
6.5458661e-07
3.51000047e-09
6.54280835e-07
3.55769342e-09
6.53982474e-07
3.61123302e-09
6.53685661e-07
3.68404114e-09
6.53384213e-07
3.77706462e-09
6.5307337e-07
3.88346034e-09
6.52750335e-07
3.99413795e-09
6.52413931e-07
4.10174557e-09
6.52063892e-07
4.20215317e-09
6.51700251e-07
4.29389406e-09
6.51323043e-07
4.3767202e-09
6.50932294e-07
4.45032438e-09
6.50528175e-07
4.51373024e-09
6.50111146e-07
4.56530859e-09
6.49682051e-07
4.60309981e-09
6.49242135e-07
4.62513966e-09
6.48793011e-07
4.62964193e-09
6.48336631e-07
4.61504239e-09
6.47875247e-07
4.57997394e-09
6.47411388e-07
4.52324036e-09
6.46947831e-07
4.44380962e-09
6.46487573e-07
4.34082994e-09
6.46033797e-07
4.21365148e-09
6.45589833e-07
4.06183258e-09
6.45159129e-07
3.88515081e-09
6.44745219e-07
3.68359902e-09
6.44351702e-07
3.45737087e-09
6.4398223e-07
3.2068563e-09
6.43640498e-07
2.93262905e-09
6.43330227e-07
2.63543e-09
6.43055152e-07
2.31616333e-09
6.4281901e-07
1.97588133e-09
6.4262556e-07
1.61577602e-09
6.42478538e-07
1.23720524e-09
6.42381313e-07
8.41748386e-10
6.42336147e-07
4.31480814e-10
6.42342945e-07
9.8741945e-12
6.42411471e-07
-4.25967537e-10
6.42541395e-07
-8.68848148e-10
6.42734968e-07
-1.3181929e-09
6.42993547e-07
-1.77116042e-09
6.43318085e-07
-2.22474361e-09
6.43708928e-07
-2.67566883e-09
6.44165738e-07
-3.12040714e-09
6.44687488e-07
-3.55521345e-09
6.45272421e-07
-3.97619992e-09
6.45918037e-07
-4.37940001e-09
6.46621088e-07
-4.76085124e-09
6.47377596e-07
-5.11668329e-09
6.48182887e-07
-5.44322829e-09
6.49031651e-07
-5.73712706e-09
6.49918009e-07
-5.99542211e-09
6.50835614e-07
-6.21565736e-09
6.51777757e-07
-6.39595377e-09
6.5273749e-07
-6.53505347e-09
6.53707762e-07
-6.63236039e-09
6.54681549e-07
-6.68794809e-09
6.55651989e-07
-6.702534e-09
6.56612501e-07
-6.67745457e-09
6.575569e-07
-6.6146038e-09
6.58479484e-07
-6.51637052e-09
6.59375112e-07
-6.38554506e-09
6.60239256e-07
-6.22524824e-09
6.61068034e-07
-6.03882365e-09
6.61858224e-07
-5.82975977e-09
6.62607258e-07
-5.6015976e-09
6.63313205e-07
-5.35785748e-09
6.63974736e-07
-5.10195935e-09
6.64591082e-07
-4.83717134e-09
6.65161983e-07
-4.56655913e-09
6.6568764e-07
-4.29293872e-09
6.66168663e-07
-4.01885447e-09
6.66606032e-07
-3.74655798e-09
6.67001077e-07
-3.47799895e-09
6.67355406e-07
-3.21485904e-09
6.67670821e-07
-2.95857791e-09
6.67949257e-07
-2.71035514e-09
6.68192744e-07
-2.47116169e-09
6.68403364e-07
-2.24175051e-09
6.68583222e-07
-2.02267702e-09
6.68734407e-07
-1.81431607e-09
6.68858976e-07
-1.61688274e-09
6.68958954e-07
-1.43044828e-09
6.69036326e-07
-1.25495979e-09
6.69093018e-07
-1.09026716e-09
6.69130887e-07
-9.36143076e-10
6.69151704e-07
-7.92298004e-10
6.69157123e-07
-6.58393276e-10
6.69148699e-07
-5.34038188e-10
6.69127918e-07
-4.18807023e-10
6.69096182e-07
-3.12263758e-10
6.69054827e-07
-2.13966603e-10
6.69005075e-07
-1.23394706e-10
6.68948241e-07
-4.0189196e-11
6.68887607e-07
3.46401407e-11
6.68821759e-07
1.02933561e-10
6.68750984e-07
1.63927579e-10
6.68676017e-07
2.18344014e-10
6.68596818e-07
2.66475972e-10
6.68513627e-07
3.0869101e-10
6.68427032e-07
3.45602522e-10
6.68337653e-07
3.77821336e-10
6.68246047e-07
4.05825389e-10
6.68152742e-07
4.30017571e-10
6.68058254e-07
4.507612e-10
6.67963064e-07
4.68379682e-10
6.67867608e-07
4.83165917e-10
6.6777226e-07
4.95386534e-10
6.67677331e-07
5.05277238e-10
6.67583074e-07
5.13043781e-10
6.67489694e-07
5.18867794e-10
6.67397358e-07
5.22911762e-10
6.67306208e-07
5.25323485e-10
6.67216367e-07
5.26239221e-10
6.67127943e-07
5.25786112e-10
6.67041035e-07
5.24084906e-10
6.66955733e-07
5.21249707e-10
6.66872118e-07
5.17388191e-10
6.66790264e-07
5.12600222e-10
6.66710237e-07
5.06979056e-10
6.66632096e-07
5.00609891e-10
6.66555891e-07
4.93570777e-10
6.66481665e-07
4.85932201e-10
6.66409453e-07
4.77757949e-10
6.66339281e-07
4.69104816e-10
6.66271171e-07
4.60023993e-10
6.66205134e-07
4.50561689e-10
6.66141179e-07
4.40759042e-10
6.66079309e-07
4.3065343e-10
6.66019524e-07
4.20278943e-10
6.65961821e-07
4.09666152e-10
6.65906195e-07
3.98843095e-10
6.65852641e-07
3.87835462e-10
6.65801154e-07
3.76666093e-10
6.65751729e-07
3.65355711e-10
6.65704362e-07
3.5392249e-10
6.65659049e-07
3.42382337e-10
6.65615789e-07
3.30748051e-10
6.65574578e-07
3.19029851e-10
6.65535417e-07
3.07233864e-10
6.65498304e-07
2.95366445e-10
6.65463241e-07
2.83408088e-10
6.65430214e-07
2.71438155e-10
6.65399296e-07
2.59008765e-10
6.65370252e-07
2.48137333e-10
2.2881703e-10
6.66621141e-07
2.68730705e-10
6.66467737e-07
8.7901014e-10
6.66202305e-07
1.50397021e-09
6.65831488e-07
2.08172259e-09
6.65371146e-07
2.56209744e-09
6.64844449e-07
2.90530477e-09
6.64279329e-07
3.08663529e-09
6.63705195e-07
3.10201753e-09
6.63149921e-07
2.96515934e-09
6.62638524e-07
2.69660853e-09
6.62193002e-07
2.31641741e-09
6.61831502e-07
1.84830936e-09
6.61565634e-07
1.33085894e-09
6.61396153e-07
8.24314234e-10
6.61307837e-07
4.054529e-10
6.61268919e-07
1.49934345e-10
6.61250157e-07
1.04025889e-10
6.61219988e-07
2.81068063e-10
6.61134898e-07
6.60540458e-10
6.60965787e-07
1.18014144e-09
6.60699572e-07
1.7623122e-09
6.60338013e-07
2.32856918e-09
6.59895309e-07
2.81153678e-09
6.59394307e-07
3.16242383e-09
6.58862737e-07
3.35321452e-09
6.58329937e-07
3.37489044e-09
6.57824296e-07
3.23370429e-09
6.57371439e-07
2.94764151e-09
6.56992781e-07
2.54449813e-09
6.56703992e-07
2.06183846e-09
6.56513154e-07
1.54777912e-09
6.56418804e-07
1.06040417e-09
6.56408545e-07
6.63511942e-10
6.56459274e-07
4.17648474e-10
6.56539731e-07
3.67746965e-10
6.56614537e-07
5.31648686e-10
6.56649464e-07
8.93009534e-10
6.56617906e-07
1.40124159e-09
6.56505896e-07
1.9813621e-09
6.56313967e-07
2.55119215e-09
6.56055374e-07
3.04073155e-09
6.55751322e-07
3.40764594e-09
6.55424777e-07
3.64393814e-09
6.55094774e-07
3.77204888e-09
6.54772871e-07
3.83258184e-09
6.54462432e-07
3.86884441e-09
6.54160375e-07
3.91403363e-09
6.538602e-07
3.98498836e-09
6.53554956e-07
4.08310688e-09
6.53239186e-07
4.20005245e-09
6.52909571e-07
4.32459527e-09
6.5256459e-07
4.44758686e-09
6.52203763e-07
4.56385612e-09
6.51826983e-07
4.67156085e-09
6.51434188e-07
4.77041119e-09
6.51025339e-07
4.86007471e-09
6.50600572e-07
4.93939979e-09
6.50160362e-07
5.00641869e-09
6.49705618e-07
5.0587394e-09
6.49237694e-07
5.09394957e-09
6.48758363e-07
5.1098464e-09
6.48269768e-07
5.10449443e-09
6.47774382e-07
5.0761963e-09
6.47274975e-07
5.02345969e-09
6.46774582e-07
4.94498736e-09
6.46276471e-07
4.83969391e-09
6.45784112e-07
4.70672864e-09
6.45301144e-07
4.54548074e-09
6.44831344e-07
4.35559e-09
6.44378597e-07
4.13694232e-09
6.43946863e-07
3.88965515e-09
6.43540149e-07
3.61407377e-09
6.43162476e-07
3.31075758e-09
6.42817852e-07
2.98045971e-09
6.42510249e-07
2.62411843e-09
6.42243583e-07
2.24284664e-09
6.42021673e-07
1.83792738e-09
6.41848229e-07
1.41083056e-09
6.41726898e-07
9.63194763e-10
6.41661569e-07
4.96862821e-10
6.4165746e-07
1.38890151e-11
6.41714618e-07
-4.83205802e-10
6.41837343e-07
-9.91714352e-10
6.42027758e-07
-1.50881727e-09
6.4228774e-07
-2.0314149e-09
6.42618584e-07
-2.55592403e-09
6.43020945e-07
-3.07842656e-09
6.43494769e-07
-3.59468998e-09
6.44039232e-07
-4.10019188e-09
6.44652662e-07
-4.59020233e-09
6.45332511e-07
-5.05987344e-09
6.46075335e-07
-5.50434995e-09
6.46876812e-07
-5.91888229e-09
6.47731785e-07
-6.29896526e-09
6.48634326e-07
-6.64047141e-09
6.49577833e-07
-6.93976747e-09
6.50555146e-07
-7.19383757e-09
6.51558677e-07
-7.40037834e-09
6.52580566e-07
-7.55785674e-09
6.53612839e-07
-7.66556206e-09
6.54647569e-07
-7.72361704e-09
6.55677037e-07
-7.73294646e-09
6.56693881e-07
-7.69524281e-09
6.57691225e-07
-7.61288652e-09
6.58662787e-07
-7.48886227e-09
6.59602965e-07
-7.32663897e-09
6.60506894e-07
-7.1300753e-09
6.61370477e-07
-6.90328398e-09
6.62190396e-07
-6.6505317e-09
6.62964098e-07
-6.37612429e-09
6.63689761e-07
-6.08431635e-09
6.64366252e-07
-5.77921547e-09
6.6499307e-07
-5.46472158e-09
6.65570282e-07
-5.14446938e-09
6.66098457e-07
-4.82177767e-09
6.66578603e-07
-4.49962965e-09
6.67012107e-07
-4.18065692e-09
6.67400679e-07
-3.86713217e-09
6.67746285e-07
-3.56099175e-09
6.6805107e-07
-3.26385703e-09
6.68317301e-07
-2.97704833e-09
6.68547319e-07
-2.70160945e-09
6.68743495e-07
-2.4383258e-09
6.68908199e-07
-2.18775151e-09
6.69043771e-07
-1.95023089e-09
6.691525e-07
-1.72592685e-09
6.69236604e-07
-1.51484335e-09
6.69298225e-07
-1.31684662e-09
6.69339407e-07
-1.13169265e-09
6.69362091e-07
-9.59049516e-10
6.69368107e-07
-7.98515715e-10
6.69359167e-07
-6.49637979e-10
6.69336882e-07
-5.11922282e-10
6.69302769e-07
-3.84848961e-10
6.69258273e-07
-2.67913858e-10
6.69204901e-07
-1.60732439e-10
6.69144423e-07
-6.30285821e-11
6.69078156e-07
2.6063875e-11
6.69005244e-07
1.07621288e-10
6.68927595e-07
1.80659984e-10
6.68845549e-07
2.46050011e-10
6.68759779e-07
3.04190198e-10
6.68670783e-07
3.55546399e-10
6.68578948e-07
4.00600276e-10
6.68484731e-07
4.3989458e-10
6.68388632e-07
4.73995151e-10
6.68291121e-07
5.03412419e-10
6.68192612e-07
5.2860125e-10
6.68093472e-07
5.49975177e-10
6.67994024e-07
5.67898575e-10
6.6789457e-07
5.82686635e-10
6.67795401e-07
5.94616017e-10
6.67696798e-07
6.03935071e-10
6.6759902e-07
6.10871195e-10
6.67502299e-07
6.15634373e-10
6.67406835e-07
6.18418852e-10
6.67312794e-07
6.19404959e-10
6.67220314e-07
6.18758826e-10
6.67129506e-07
6.16633208e-10
6.6704046e-07
6.13169345e-10
6.66953251e-07
6.08497384e-10
6.66867939e-07
6.02737948e-10
6.66784577e-07
5.96001416e-10
6.66703204e-07
5.8838966e-10
6.66623857e-07
5.79994743e-10
6.66546564e-07
5.70900502e-10
6.66471351e-07
5.61182478e-10
6.66398235e-07
5.50909093e-10
6.66327233e-07
5.40141307e-10
6.66258357e-07
5.28934164e-10
6.66191614e-07
5.17337433e-10
6.66127009e-07
5.05395461e-10
6.66064545e-07
4.93148601e-10
6.6600422e-07
4.80633684e-10
6.65946032e-07
4.67883642e-10
6.65889975e-07
4.54928562e-10
6.65836042e-07
4.41795816e-10
6.65784225e-07
4.28509452e-10
6.65734516e-07
4.15091008e-10
6.65686905e-07
4.01559014e-10
6.65641383e-07
3.87929377e-10
6.6559794e-07
3.74214551e-10
6.65556569e-07
3.60424354e-10
6.65517261e-07
3.4656447e-10
6.65480007e-07
3.3264195e-10
6.65444802e-07
3.18635822e-10
6.65411611e-07
3.04645431e-10
6.65380476e-07
2.90174275e-10
6.65350908e-07
2.77662746e-10
2.55661101e-10
6.66620203e-07
3.14922528e-10
6.66465434e-07
1.03386727e-09
6.66197997e-07
1.77152127e-09
6.65824917e-07
2.45476954e-09
6.65362234e-07
3.02464958e-09
6.64833153e-07
3.43424857e-09
6.64265458e-07
3.65421071e-09
6.63688268e-07
3.67909381e-09
6.63129221e-07
3.52409268e-09
6.62613118e-07
3.2126048e-09
6.62161584e-07
2.76785766e-09
6.61792384e-07
2.21742194e-09
6.61516582e-07
1.60656252e-09
6.61335118e-07
1.00563565e-09
6.61235759e-07
5.04575075e-10
6.61196492e-07
1.88957568e-10
6.61178802e-07
1.21465212e-10
6.61141241e-07
3.18377892e-10
6.61050698e-07
7.50945592e-10
6.60880957e-07
1.34980251e-09
6.60618589e-07
2.02463553e-09
6.60263718e-07
2.68340108e-09
6.59828603e-07
3.24660159e-09
6.59334578e-07
3.65638099e-09
6.58808425e-07
3.87928083e-09
6.58279048e-07
3.90416359e-09
6.57774846e-07
3.73778833e-09
6.57321802e-07
3.40055361e-09
6.56941963e-07
2.92419462e-09
6.56651833e-07
2.35181691e-09
6.56460465e-07
1.7389846e-09
6.56367483e-07
1.15320994e-09
6.56361665e-07
6.69126668e-10
6.56420781e-07
3.58279852e-10
6.56512977e-07
2.75235902e-10
6.56601294e-07
4.43003142e-10
6.56651044e-07
8.42929893e-10
6.56635469e-07
1.41646591e-09
6.56540074e-07
2.0763788e-09
6.5636449e-07
2.72636608e-09
6.56121045e-07
3.28373176e-09
6.55830335e-07
3.69787397e-09
6.55515164e-07
3.95859251e-09
6.55194769e-07
4.09189015e-09
6.54881073e-07
4.14568987e-09
6.54577752e-07
4.17154453e-09
6.54281846e-07
4.20928654e-09
6.5398677e-07
4.27938396e-09
6.53685329e-07
4.38384078e-09
6.5337176e-07
4.51289317e-09
6.53042441e-07
4.65316547e-09
6.52695596e-07
4.79366726e-09
6.52330542e-07
4.92813211e-09
6.51947021e-07
5.05429442e-09
6.51544856e-07
5.17178191e-09
6.51123935e-07
5.28019818e-09
6.50684362e-07
5.37817392e-09
6.50226631e-07
5.4633552e-09
6.49751715e-07
5.53286643e-09
6.4926109e-07
5.58379524e-09
6.48756698e-07
5.61347208e-09
6.48240899e-07
5.6195432e-09
6.47716426e-07
5.59993803e-09
6.47186346e-07
5.55283062e-09
6.4665402e-07
5.47662926e-09
6.46123061e-07
5.36999808e-09
6.4559728e-07
5.23188607e-09
6.45080638e-07
5.06153381e-09
6.44577192e-07
4.85848199e-09
6.44091062e-07
4.62255758e-09
6.43626395e-07
4.35384544e-09
6.43187358e-07
4.0526732e-09
6.4277813e-07
3.7195895e-09
6.42402893e-07
3.35534159e-09
6.42065826e-07
2.96087224e-09
6.41771088e-07
2.53731485e-09
6.41522802e-07
2.08599036e-09
6.41325035e-07
1.60842124e-09
6.41181758e-07
1.10634582e-09
6.41096577e-07
5.81968805e-10
6.41072557e-07
3.79523262e-11
6.41114565e-07
-5.25183496e-10
6.41225322e-07
-1.10239208e-09
6.41407752e-07
-1.69111849e-09
6.41664153e-07
-2.28763759e-09
6.41996251e-07
-2.88779788e-09
6.42405096e-07
-3.48700248e-09
6.42890959e-07
-4.0802426e-09
6.43453256e-07
-4.66213779e-09
6.44090466e-07
-5.22702479e-09
6.44800076e-07
-5.7690619e-09
6.45578545e-07
-6.2823652e-09
6.46421296e-07
-6.76115052e-09
6.47322749e-07
-7.19990792e-09
6.48276385e-07
-7.59357314e-09
6.49274855e-07
-7.93768027e-09
6.50310114e-07
-8.22852136e-09
6.51373599e-07
-8.46327071e-09
6.52456412e-07
-8.64006225e-09
6.53549523e-07
-8.75805461e-09
6.54643978e-07
-8.817444e-09
6.55731088e-07
-8.81942301e-09
6.56802616e-07
-8.76613174e-09
6.57850922e-07
-8.66055321e-09
6.588691e-07
-8.50640191e-09
6.59851065e-07
-8.30796991e-09
6.60791621e-07
-8.07000203e-09
6.61686483e-07
-7.79752541e-09
6.62532284e-07
-7.49572175e-09
6.63326543e-07
-7.16978575e-09
6.64067626e-07
-6.82481419e-09
6.64754671e-07
-6.46569252e-09
6.65387526e-07
-6.09702407e-09
6.65966655e-07
-5.72306571e-09
6.66493066e-07
-5.34767406e-09
6.66968219e-07
-4.97428805e-09
6.67393952e-07
-4.6059165e-09
6.67772407e-07
-4.24513411e-09
6.68105952e-07
-3.89410579e-09
6.68397115e-07
-3.55461034e-09
6.68648518e-07
-3.22806227e-09
6.68862824e-07
-2.91554744e-09
6.69042695e-07
-2.6178499e-09
6.69190757e-07
-2.33548707e-09
6.69309571e-07
-2.06873782e-09
6.69401611e-07
-1.81767866e-09
6.69469251e-07
-1.58221362e-09
6.69514759e-07
-1.36210116e-09
6.69540287e-07
-1.15698502e-09
6.69547878e-07
-9.66418442e-10
6.69539455e-07
-7.89884528e-10
6.69516834e-07
-6.26818652e-10
6.69481731e-07
-4.7662775e-10
6.69435771e-07
-3.38694948e-10
6.69380386e-07
-2.12321223e-10
6.69316433e-07
-9.65492045e-11
6.69243613e-07
9.96777781e-12
6.69165752e-07
1.04008778e-10
6.69083369e-07
1.90042299e-10
6.68996738e-07
2.67318368e-10
6.68906498e-07
3.36308472e-10
6.6881316e-07
3.97538626e-10
6.68717172e-07
4.5153961e-10
6.68618928e-07
4.98845733e-10
6.68518825e-07
5.39996326e-10
6.6841728e-07
5.75536021e-10
6.68314709e-07
6.05977194e-10
6.68211519e-07
6.31782036e-10
6.68108111e-07
6.53371957e-10
6.68004863e-07
6.71136064e-10
6.67902102e-07
6.85436501e-10
6.67800102e-07
6.96606587e-10
6.67699082e-07
7.04945421e-10
6.67599227e-07
7.10717756e-10
6.67500692e-07
7.14160538e-10
6.67403612e-07
7.15489121e-10
6.67308105e-07
7.14900142e-10
6.67214277e-07
7.12573838e-10
6.6712222e-07
7.08675375e-10
6.67032015e-07
7.03357852e-10
6.66943733e-07
6.96762411e-10
6.66857432e-07
6.89019426e-10
6.66773166e-07
6.80247732e-10
6.66690977e-07
6.70557067e-10
6.66610904e-07
6.60046892e-10
6.66532974e-07
6.48808227e-10
6.66457211e-07
6.36923459e-10
6.6638363e-07
6.24467541e-10
6.66312242e-07
6.11507462e-10
6.66243051e-07
5.98103804e-10
6.66176055e-07
5.84311257e-10
6.66111251e-07
5.70178216e-10
6.6604863e-07
5.55748229e-10
6.65988183e-07
5.41060435e-10
6.65929896e-07
5.26149167e-10
6.65873759e-07
5.11045236e-10
6.65819758e-07
4.95776218e-10
6.65767881e-07
4.80365931e-10
6.65718117e-07
4.64835497e-10
6.65670453e-07
4.49202933e-10
6.65624879e-07
4.33483698e-10
6.65581384e-07
4.17689872e-10
6.65539958e-07
4.01831118e-10
6.65500591e-07
3.8591335e-10
6.65463269e-07
3.69944349e-10
6.65427985e-07
3.53903025e-10
6.65394712e-07
3.37896011e-10
6.65363514e-07
3.21364173e-10
6.6533415e-07
3.06951134e-10
2.8162253e-10
6.66620028e-07
3.61383412e-10
6.66464847e-07
1.18913405e-09
6.66196045e-07
2.04045968e-09
6.65819635e-07
2.83120943e-09
6.65350837e-07
3.49341834e-09
6.64812661e-07
3.97241143e-09
6.64233509e-07
4.23337366e-09
6.63643729e-07
4.2688852e-09
6.63072402e-07
4.09541651e-09
6.62545741e-07
3.73925083e-09
6.62086714e-07
3.22686162e-09
6.61714204e-07
2.58990174e-09
6.61440098e-07
1.8806319e-09
6.61265472e-07
1.18022389e-09
6.61177822e-07
5.92198496e-10
6.61149653e-07
2.17129397e-10
6.61144147e-07
1.26995097e-10
6.61118683e-07
3.43840844e-10
6.61037698e-07
8.31912761e-10