/*--------------------------------*- C++ -*----------------------------------*\
| =========                 |                                                 |
| \\      /  F ield         | OpenFOAM: The Open Source CFD Toolbox           |
|  \\    /   O peration     | Version:  v2012                                 |
|   \\  /    A nd           | Website:  www.openfoam.com                      |
|    \\/     M anipulation  |                                                 |
\*---------------------------------------------------------------------------*/
FoamFile
{
    version     2.0;
    format      ascii;
    class       volVectorField;
    location    "2.39";
    object      U;
}
// * * * * * * * * * * * * * * * * * * * * * * * * * * * * * * * * * * * * * //

dimensions      [0 1 -1 0 0 0 0];


internalField   nonuniform List<vector> 
28416
(
(0.0999980051 1.39143918e-05 0)
(0.0999812401 4.51411815e-05 0)
(0.0999472765 7.83294945e-05 0)
(0.0998971592 0.000109660514 0)
(0.0998342405 0.000135647149 0)
(0.0997620227 0.000153605402 0)
(0.0996839367 0.000161888808 0)
(0.0996035904 0.000160225114 0)
(0.0995245437 0.000149575223 0)
(0.0994499508 0.000131442268 0)
(0.0993825032 0.000107366026 0)
(0.0993245328 7.91552002e-05 0)
(0.0992779492 4.95511881e-05 0)
(0.0992439263 2.24808109e-05 0)
(0.099222478 2.33531783e-06 0)
(0.0992099741 -7.63461098e-06 0)
(0.0992006993 -4.99608705e-06 0)
(0.0991897975 1.10734865e-05 0)
(0.0991725815 3.90125311e-05 0)
(0.0991446732 7.53853345e-05 0)
(0.0991041347 0.000116212749 0)
(0.0990523742 0.000156738135 0)
(0.0989917333 0.000192234849 0)
(0.0989245862 0.000219120955 0)
(0.0988537364 0.000235230956 0)
(0.0987823258 0.000239674359 0)
(0.0987133816 0.000232727211 0)
(0.0986495915 0.000215733182 0)
(0.0985932556 0.000190970912 0)
(0.098546181 0.00016153492 0)
(0.098509479 0.000131224378 0)
(0.0984833294 0.00010434766 0)
(0.0984667881 8.53363826e-05 0)
(0.098457815 7.81311351e-05 0)
(0.0984532437 8.53588275e-05 0)
(0.0984491698 0.000107789562 0)
(0.0984418384 0.000143908225 0)
(0.0984282731 0.000190003588 0)
(0.0984067277 0.000240891043 0)
(0.098376921 0.000291056375 0)
(0.0983399319 0.000335877046 0)
(0.0982977677 0.000372554569 0)
(0.0982527504 0.00040047522 0)
(0.0982069154 0.000420920794 0)
(0.0981616009 0.00043628922 0)
(0.0981173207 0.00044915085 0)
(0.0980738972 0.000461485839 0)
(0.0980307497 0.000474321189 0)
(0.0979872008 0.000487787359 0)
(0.0979426942 0.000501446846 0)
(0.0978968829 0.000514682257 0)
(0.0978496088 0.000526975778 0)
(0.0978008288 0.000538015864 0)
(0.0977505433 0.000547664071 0)
(0.0976987552 0.000555861418 0)
(0.0976454641 0.00056254558 0)
(0.0975906808 0.000567612442 0)
(0.0975344468 0.000570918744 0)
(0.0974768464 0.000572304548 0)
(0.0974180112 0.000571615425 0)
(0.0973581195 0.000568714888 0)
(0.0972973926 0.000563487478 0)
(0.097236092 0.000555837214 0)
(0.097174517 0.000545685616 0)
(0.0971130021 0.000532971067 0)
(0.0970519135 0.000517649468 0)
(0.0969916456 0.000499695529 0)
(0.0969326158 0.000479104363 0)
(0.0968752607 0.00045589332 0)
(0.096820032 0.000430103988 0)
(0.0967673942 0.000401804006 0)
(0.096717824 0.000371088093 0)
(0.0966718101 0.000338077471 0)
(0.096629854 0.000302917687 0)
(0.0965924705 0.000265772644 0)
(0.0965601915 0.000226818227 0)
(0.0965335678 0.000186221568 0)
(0.0965131254 0.000144119727 0)
(0.0964993034 0.000100641831 0)
(0.0964923219 5.59453554e-05 0)
(0.0964920773 1.04191675e-05 0)
(0.0964995807 -3.50287141e-05 0)
(0.0965160317 -8.08051028e-05 0)
(0.096541307 -0.000126973446 0)
(0.0965753043 -0.000173255071 0)
(0.0966181595 -0.000219359236 0)
(0.0966699181 -0.000265003961 0)
(0.0967304986 -0.000309882028 0)
(0.0967997481 -0.000353669582 0)
(0.0968774327 -0.000396034034 0)
(0.096963222 -0.000436632631 0)
(0.0970566948 -0.000475114709 0)
(0.0971573477 -0.000511129808 0)
(0.0972646025 -0.00054433922 0)
(0.0973778138 -0.000574429317 0)
(0.097496277 -0.000601124568 0)
(0.0976192367 -0.000624198054 0)
(0.0977458949 -0.000643478299 0)
(0.097875421 -0.000658852447 0)
(0.0980069633 -0.000670266659 0)
(0.0981396628 -0.000677724739 0)
(0.0982726669 -0.000681285685 0)
(0.0984051435 -0.000681060447 0)
(0.0985362939 -0.000677207881 0)
(0.098665365 -0.000669929787 0)
(0.0987916585 -0.000659465044 0)
(0.0989145388 -0.000646082971 0)
(0.0990334392 -0.000630076184 0)
(0.0991478652 -0.000611753259 0)
(0.0992573963 -0.00059143151 0)
(0.0993616865 -0.000569430158 0)
(0.0994604625 -0.000546064129 0)
(0.0995535198 -0.000521638556 0)
(0.0996407183 -0.000496443971 0)
(0.0997219742 -0.000470751585 0)
(0.099797248 -0.000444808469 0)
(0.0998665403 -0.000418827114 0)
(0.0999299339 -0.000392980203 0)
(0.0999875998 -0.000367424523 0)
(0.100039745 -0.000342306972 0)
(0.100086587 -0.000317758642 0)
(0.100128355 -0.000293891621 0)
(0.100165289 -0.000270798498 0)
(0.100197632 -0.000248551487 0)
(0.100225632 -0.000227197704 0)
(0.100249543 -0.00020676246 0)
(0.100269632 -0.000187258038 0)
(0.100286169 -0.00016868787 0)
(0.100299418 -0.000151047949 0)
(0.100309643 -0.000134327917 0)
(0.100317095 -0.000118512086 0)
(0.100322018 -0.000103579704 0)
(0.100324644 -8.95026122e-05 0)
(0.100325189 -7.62426691e-05 0)
(0.100323863 -6.37503967e-05 0)
(0.100320877 -5.19662213e-05 0)
(0.100316459 -4.08292812e-05 0)
(0.100310873 -3.03013503e-05 0)
(0.100304429 -2.04069755e-05 0)
(0.100297468 -1.13376422e-05 0)
(0.10029013 -3.36256494e-06 0)
(0.100282164 3.42278257e-06 0)
(0.100273185 9.1728205e-06 0)
(0.10026307 1.4161121e-05 0)
(0.100252019 1.85805689e-05 0)
(0.100240282 2.25212227e-05 0)
(0.100228015 2.603972e-05 0)
(0.100215314 2.91894303e-05 0)
(0.100202277 3.20158067e-05 0)
(0.100188997 3.45533609e-05 0)
(0.100175555 3.68277918e-05 0)
(0.100162025 3.88570163e-05 0)
(0.100148469 4.06524042e-05 0)
(0.100134939 4.22217266e-05 0)
(0.100121478 4.35720767e-05 0)
(0.100108116 4.47115408e-05 0)
(0.10009488 4.56498842e-05 0)
(0.100081792 4.63986666e-05 0)
(0.100068871 4.6970951e-05 0)
(0.100056133 4.73807615e-05 0)
(0.100043593 4.76424678e-05 0)
(0.100031265 4.77702209e-05 0)
(0.100019164 4.77774769e-05 0)
(0.100007301 4.76766253e-05 0)
(0.0999956894 4.74787437e-05 0)
(0.0999843384 4.71934993e-05 0)
(0.0999732581 4.68291767e-05 0)
(0.0999624568 4.63927983e-05 0)
(0.0999519411 4.58903089e-05 0)
(0.0999417166 4.53268009e-05 0)
(0.0999317875 4.47067531e-05 0)
(0.0999221568 4.4034256e-05 0)
(0.0999128265 4.33131997e-05 0)
(0.0999037977 4.25474075e-05 0)
(0.099895071 4.17407125e-05 0)
(0.0998866467 4.08969772e-05 0)
(0.0998785248 4.00200667e-05 0)
(0.099870705 3.91137874e-05 0)
(0.0998631875 3.81818062e-05 0)
(0.0998559723 3.7227563e-05 0)
(0.0998490597 3.62541995e-05 0)
(0.0998424503 3.52644972e-05 0)
(0.0998361454 3.42608696e-05 0)
(0.0998301443 3.3245164e-05 0)
(0.0998244561 3.22192502e-05 0)
(0.0998190592 3.11817608e-05 0)
(0.099814045 3.01416996e-05 0)
(0.0998091286 2.90521459e-05 0)
(0.0998054042 2.81092616e-05 0)
(0.0997994472 2.63391415e-05 0)
(0.0999987728 2.86427842e-05 0)
(0.099985703 9.15002408e-05 0)
(0.0999553324 0.00015605084 0)
(0.0999068736 0.000215665869 0)
(0.0998434163 0.000264738366 0)
(0.0997688844 0.000298991287 0)
(0.0996871941 0.00031590756 0)
(0.0996024539 0.000315248912 0)
(0.0995187974 0.000298715824 0)
(0.099439993 0.000268754987 0)
(0.0993693324 0.000227748599 0)
(0.0993096835 0.000178458276 0)
(0.0992632711 0.00012519592 0)
(0.0992310255 7.44097946e-05 0)
(0.0992117004 3.38415658e-05 0)
(0.09920149 1.05202729e-05 0)
(0.099196128 1.01772922e-05 0)
(0.0991911435 3.3957306e-05 0)
(0.0991810084 7.82737754e-05 0)
(0.0991606758 0.000136340624 0)
(0.0991267643 0.000200618361 0)
(0.099078434 0.000263133986 0)
(0.0990172721 0.000316610054 0)
(0.0989463479 0.000355770785 0)
(0.098869473 0.000377661902 0)
(0.0987907858 0.000381330394 0)
(0.0987143516 0.000367456751 0)
(0.0986438542 0.000338082585 0)
(0.0985824377 0.000296444152 0)
(0.098532575 0.000246938083 0)
(0.0984958628 0.000195133134 0)
(0.0984727485 0.000147611736 0)
(0.0984622699 0.000111419508 0)
(0.0984619299 9.30410874e-05 0)
(0.098467798 9.69892392e-05 0)
(0.098474949 0.00012470068 0)
(0.0984782634 0.000173809339 0)
(0.098473385 0.000238354752 0)
(0.098457555 0.000310004824 0)
(0.0984300768 0.000379951104 0)
(0.0983922747 0.000440917933 0)
(0.0983469567 0.000488667957 0)
(0.0982975438 0.000522545618 0)
(0.0982471499 0.000544949521 0)
(0.0981978998 0.00056001393 0)
(0.0981506645 0.000572043696 0)
(0.0981052165 0.000584271478 0)
(0.0980606615 0.000598292259 0)
(0.0980159265 0.000614198734 0)
(0.0979701249 0.000631162188 0)
(0.0979227119 0.000648097685 0)
(0.0978734592 0.00066413147 0)
(0.0978223322 0.00067876769 0)
(0.0977693652 0.000691816742 0)
(0.0977145869 0.000703224685 0)
(0.0976580051 0.00071292635 0)
(0.0975996279 0.000720778179 0)
(0.0975394942 0.000726563216 0)
(0.0974776942 0.000730030236 0)
(0.0974143761 0.000730931902 0)
(0.0973497433 0.000729045758 0)
(0.0972840484 0.000724179101 0)
(0.0972175872 0.000716166244 0)
(0.0971506954 0.00070486554 0)
(0.0970837454 0.000690159136 0)
(0.097017143 0.000671954932 0)
(0.0969513239 0.000650189076 0)
(0.0968867494 0.000624827774 0)
(0.0968239022 0.000595868019 0)
(0.096763283 0.000563337356 0)
(0.0967054063 0.000527292968 0)
(0.0966507984 0.000487820334 0)
(0.0965999941 0.000445031381 0)
(0.0965535332 0.000399062358 0)
(0.0965119575 0.000350070488 0)
(0.0964758002 0.000298230496 0)
(0.0964455688 0.000243725087 0)
(0.0964217485 0.000186737324 0)
(0.0964048073 0.000127478923 0)
(0.096395301 6.62521122e-05 0)
(0.0963940996 3.48992128e-06 0)
(0.096401399 -6.03107551e-05 0)
(0.0964172433 -0.000124906481 0)
(0.0964422127 -0.000190113812 0)
(0.0964765438 -0.000255540147 0)
(0.0965203443 -0.000320770251 0)
(0.0965736721 -0.000385379558 0)
(0.0966364951 -0.000448901471 0)
(0.0967086848 -0.00051083786 0)
(0.0967900153 -0.000570675071 0)
(0.0968801564 -0.000627892038 0)
(0.096978675 -0.000681970595 0)
(0.0970850398 -0.000732408689 0)
(0.0971986271 -0.000778733518 0)
(0.0973187283 -0.000820514114 0)
(0.0974445584 -0.00085737317 0)
(0.0975752672 -0.000888997547 0)
(0.0977099504 -0.000915146943 0)
(0.0978476649 -0.000935660338 0)
(0.0979874436 -0.000950459938 0)
(0.098128313 -0.000959552396 0)
(0.0982693103 -0.000963027253 0)
(0.0984095006 -0.000961052798 0)
(0.0985479919 -0.00095386965 0)
(0.0986839494 -0.000941782489 0)
(0.0988166062 -0.0009251504 0)
(0.0989452724 -0.000904376281 0)
(0.0990693414 -0.000879895791 0)
(0.0991882934 -0.000852166265 0)
(0.0993016966 -0.000821655976 0)
(0.0994092067 -0.00078883407 0)
(0.0995105634 -0.000754161422 0)
(0.0996055861 -0.00071808251 0)
(0.099694168 -0.000681018212 0)
(0.0997762694 -0.000643358903 0)
(0.0998519114 -0.000605457802 0)
(0.0999211728 -0.000567619389 0)
(0.0999841929 -0.00053009544 0)
(0.100041165 -0.000493113666 0)
(0.10009232 -0.000456884325 0)
(0.100137908 -0.00042159231 0)
(0.100178199 -0.000387393093 0)
(0.100213473 -0.00035441248 0)
(0.100244024 -0.000322746474 0)
(0.100270147 -0.000292459273 0)
(0.100292138 -0.000263587227 0)
(0.100310286 -0.000236146752 0)
(0.100324877 -0.000210139197 0)
(0.100336191 -0.000185553297 0)
(0.100344503 -0.000162366957 0)
(0.100350078 -0.000140548902 0)
(0.100353174 -0.00012006041 0)
(0.100354042 -0.000100858085 0)
(0.100352924 -8.28940777e-05 0)
(0.100350055 -6.61158121e-05 0)
(0.100345657 -5.04691078e-05 0)
(0.100339933 -3.59065596e-05 0)
(0.100333048 -2.24026613e-05 0)
(0.100325045 -9.98074791e-06 0)
(0.100315985 1.39453962e-06 0)
(0.100306119 1.15640798e-05 0)
(0.100295686 2.03992298e-05 0)
(0.100284724 2.79755218e-05 0)
(0.100273157 3.45349047e-05 0)
(0.100260972 4.02916065e-05 0)
(0.100248264 4.53597615e-05 0)
(0.100235146 4.98084489e-05 0)
(0.100221703 5.37017825e-05 0)
(0.10020801 5.70972645e-05 0)
(0.10019414 6.00431657e-05 0)
(0.100180155 6.25821386e-05 0)
(0.100166113 6.47518516e-05 0)
(0.100152067 6.65841335e-05 0)
(0.100138063 6.81058713e-05 0)
(0.100124143 6.93405494e-05 0)
(0.100110341 7.03091889e-05 0)
(0.100096686 7.10309392e-05 0)
(0.100083206 7.15236842e-05 0)
(0.10006992 7.18045788e-05 0)
(0.100056847 7.18903259e-05 0)
(0.100044003 7.17971802e-05 0)
(0.100031401 7.15408194e-05 0)
(0.100019052 7.11361978e-05 0)
(0.100006966 7.05974047e-05 0)
(0.0999951539 6.99375349e-05 0)
(0.0999836219 6.91685996e-05 0)
(0.0999723775 6.83014971e-05 0)
(0.0999614264 6.73460385e-05 0)
(0.0999507736 6.63110166e-05 0)
(0.099940423 6.52043027e-05 0)
(0.0999303777 6.40329601e-05 0)
(0.0999206399 6.28033617e-05 0)
(0.0999112111 6.15213015e-05 0)
(0.0999020924 6.01920907e-05 0)
(0.099893284 5.88206347e-05 0)
(0.0998847861 5.74114869e-05 0)
(0.0998765984 5.59688782e-05 0)
(0.0998687208 5.44967289e-05 0)
(0.0998611526 5.29986436e-05 0)
(0.0998538935 5.14778907e-05 0)
(0.0998469433 4.99373724e-05 0)
(0.0998403014 4.83795724e-05 0)
(0.0998339686 4.68065361e-05 0)
(0.099827943 4.52195839e-05 0)
(0.0998222325 4.36199977e-05 0)
(0.0998168124 4.20047518e-05 0)
(0.0998117734 4.03847717e-05 0)
(0.0998068093 3.86944176e-05 0)
(0.0998030391 3.72185943e-05 0)
(0.0997968238 3.45539301e-05 0)
(0.0999983954 3.44726541e-05 0)
(0.0999836877 0.000110055286 0)
(0.0999520193 0.000186857319 0)
(0.0999031869 0.000257474951 0)
(0.0998400901 0.000315820367 0)
(0.0997663372 0.000357011904 0)
(0.0996856165 0.000378069331 0)
(0.0996018451 0.000378637799 0)
(0.0995189844 0.000360574462 0)
(0.0994406485 0.000326536368 0)
(0.0993699618 0.000279053449 0)
(0.0993095912 0.000221082968 0)
(0.0992616116 0.000157446428 0)
(0.0992271037 9.56643162e-05 0)
(0.099205701 4.51996418e-05 0)
(0.0991950048 1.5302165e-05 0)
(0.099190015 1.24221114e-05 0)
(0.0991842667 3.77868635e-05 0)
(0.0991719925 8.78225869e-05 0)
(0.0991492593 0.000154865196 0)
(0.0991139755 0.000229111826 0)
(0.0990657674 0.000300897094 0)
(0.0990059443 0.000361994361 0)
(0.0989370501 0.000406383949 0)
(0.0988624346 0.000430592778 0)
(0.0987858794 0.000433522195 0)
(0.0987112132 0.000416012648 0)
(0.0986420026 0.000380433281 0)
(0.0985813586 0.000330443357 0)
(0.0985317724 0.000270955436 0)
(0.0984948974 0.000208183665 0)
(0.0984712749 0.000149517566 0)
(0.0984600731 0.000102947217 0)
(0.0984589436 7.59324427e-05 0)
(0.0984641113 7.38988275e-05 0)
(0.0984708314 9.88469569e-05 0)
(0.0984742036 0.00014851134 0)
(0.098470062 0.000216434379 0)
(0.0984556946 0.000293182297 0)
(0.0984302663 0.000368475263 0)
(0.0983948242 0.000433595465 0)
(0.0983518493 0.000483300923 0)
(0.0983044823 0.000516631162 0)
(0.0982556715 0.000536393626 0)
(0.0982075113 0.000547617166 0)
(0.0981609492 0.000555628508 0)
(0.0981158877 0.000564476856 0)
(0.0980715571 0.000576183653 0)
(0.0980269649 0.000590877817 0)
(0.097981248 0.000607512014 0)
(0.0979338397 0.000624705468 0)
(0.0978844666 0.000641347181 0)
(0.0978330478 0.00065681746 0)
(0.0977795831 0.000670899761 0)
(0.0977240812 0.000683559644 0)
(0.097666542 0.000694750779 0)
(0.0976069728 0.000704323625 0)
(0.0975454154 0.000712029146 0)
(0.0974819654 0.000717568729 0)
(0.0974167793 0.00072064396 0)
(0.0973500724 0.00072098427 0)
(0.0972821133 0.000718353313 0)
(0.0972132177 0.000712545066 0)
(0.0971437449 0.000703379404 0)
(0.0970740937 0.000690701152 0)
(0.0970046981 0.000674382028 0)
(0.096936023 0.000654323402 0)
(0.0968685582 0.000630458464 0)
(0.0968028134 0.000602753476 0)
(0.0967393131 0.000571208356 0)
(0.0966785932 0.000535856791 0)
(0.0966211981 0.000496765757 0)
(0.0965676796 0.00045403417 0)
(0.0965185948 0.000407790517 0)
(0.0964745044 0.000358190659 0)
(0.0964359703 0.000305414628 0)
(0.0964035531 0.000249671438 0)
(0.0963778149 0.00019120736 0)
(0.0963593268 0.000130304113 0)
(0.0963485248 6.72695889e-05 0)
(0.0963454499 2.36747615e-06 0)
(0.0963508454 -6.42492644e-05 0)
(0.0963655712 -0.000132155168 0)
(0.0963897277 -0.000200987286 0)
(0.0964235255 -0.000270367264 0)
(0.0964671625 -0.000339841534 0)
(0.0965207488 -0.000408912971 0)
(0.0965842837 -0.000477048843 0)
(0.0966576641 -0.000543684759 0)
(0.0967406833 -0.000608233988 0)
(0.096833023 -0.000670096478 0)
(0.0969342518 -0.0007286696 0)
(0.0970438266 -0.000783362332 0)
(0.097161097 -0.000833611609 0)
(0.0972853118 -0.000878899592 0)
(0.0974156287 -0.000918770495 0)
(0.0975511268 -0.000952845397 0)
(0.0976908224 -0.000980833863 0)
(0.0978336863 -0.00100254175 0)
(0.0979786632 -0.00101787525 0)
(0.0981246925 -0.00102684138 0)
(0.0982707274 -0.00102954536 0)
(0.0984157553 -0.00102618508 0)
(0.0985588145 -0.00101704313 0)
(0.09869901 -0.00100247655 0)
(0.098835526 -0.000982905052 0)
(0.0989676352 -0.000958797963 0)
(0.0990947057 -0.000930660681 0)
(0.0992162043 -0.000899021167 0)
(0.099331697 -0.000864416969 0)
(0.0994408471 -0.00082738321 0)
(0.0995434114 -0.000788441823 0)
(0.0996392342 -0.000748092201 0)
(0.0997282401 -0.000706803234 0)
(0.099810427 -0.000665006725 0)
(0.0998858575 -0.000623092271 0)
(0.0999546526 -0.00058140381 0)
(0.100016987 -0.000540240067 0)
(0.100073082 -0.000499861062 0)
(0.100123197 -0.000460491151 0)
(0.100167615 -0.000422318542 0)
(0.100206636 -0.000385495772 0)
(0.100240568 -0.000350141726 0)
(0.100269728 -0.000316344486 0)
(0.100294431 -0.000284166195 0)
(0.100314989 -0.000253645142 0)
(0.100331708 -0.000224796442 0)
(0.100344891 -0.000197615183 0)
(0.10035483 -0.000172080252 0)
(0.10036181 -0.000148157762 0)
(0.100366103 -0.000125804276 0)
(0.100367967 -0.000104970381 0)
(0.100367643 -8.56059052e-05 0)
(0.100365359 -6.76631882e-05 0)
(0.100361332 -5.10988473e-05 0)
(0.100355766 -3.58750209e-05 0)
(0.100348858 -2.1949516e-05 0)
(0.100340788 -9.2586121e-06 0)
(0.100331876 2.29933182e-06 0)
(0.10032231 1.28243925e-05 0)
(0.100312037 2.2400201e-05 0)
(0.100301078 3.10320155e-05 0)
(0.100289473 3.86921139e-05 0)
(0.100277258 4.54150174e-05 0)
(0.100264485 5.13010704e-05 0)
(0.100251239 5.64490869e-05 0)
(0.100237616 6.09348469e-05 0)
(0.1002237 6.482531e-05 0)
(0.100209571 6.81818691e-05 0)
(0.100195304 7.10566866e-05 0)
(0.100180967 7.34930024e-05 0)
(0.100166622 7.55274361e-05 0)
(0.10015232 7.71918559e-05 0)
(0.100138103 7.85149045e-05 0)
(0.100124004 7.9523274e-05 0)
(0.100110051 8.02424577e-05 0)
(0.100096267 8.06969276e-05 0)
(0.100082671 8.09100109e-05 0)
(0.100069281 8.09037395e-05 0)
(0.100056112 8.06987761e-05 0)
(0.100043178 8.03143862e-05 0)
(0.100030492 7.97684118e-05 0)
(0.100018065 7.90772362e-05 0)
(0.100005908 7.82557647e-05 0)
(0.0999940313 7.73174428e-05 0)
(0.0999824417 7.62743114e-05 0)
(0.0999711467 7.51370905e-05 0)
(0.099960152 7.39152912e-05 0)
(0.0999494622 7.26173529e-05 0)
(0.0999390809 7.12507952e-05 0)
(0.0999290104 6.98223718e-05 0)
(0.0999192523 6.83382157e-05 0)
(0.0999098075 6.68039632e-05 0)
(0.099900676 6.52248454e-05 0)
(0.0998918576 6.36057474e-05 0)
(0.0998833516 6.19512357e-05 0)
(0.0998751574 6.02655591e-05 0)
(0.099867274 5.85526345e-05 0)
(0.0998597007 5.68160208e-05 0)
(0.0998524369 5.5058883e-05 0)
(0.0998454819 5.32839532e-05 0)
(0.0998388353 5.14934754e-05 0)
(0.0998324972 4.96891894e-05 0)
(0.0998264654 4.78720717e-05 0)
(0.099820747 4.6043091e-05 0)
(0.099815317 4.41989232e-05 0)
(0.0998102639 4.23519522e-05 0)
(0.0998052889 4.04321291e-05 0)
(0.0998015044 3.87611584e-05 0)
(0.0997953796 3.57880609e-05 0)
(0.0999986243 4.35532279e-05 0)
(0.0999850314 0.00014011078 0)
(0.0999544809 0.000239132836 0)
(0.0999060919 0.000330683201 0)
(0.0998424501 0.000406654168 0)
(0.0997671571 0.000460640848 0)
(0.0996840831 0.000488706899 0)
(0.0995974459 0.000490272873 0)
(0.0995115866 0.000467635904 0)
(0.0994305419 0.000424198689 0)
(0.0993578652 0.0003632712 0)
(0.0992966257 0.000288732527 0)
(0.099249186 0.000206840931 0)
(0.0992166028 0.000127271563 0)
(0.0991978389 6.20536012e-05 0)
(0.0991893606 2.25852597e-05 0)
(0.0991863975 1.66960245e-05 0)
(0.0991839927 4.65331116e-05 0)
(0.0991764496 0.000107886584 0)
(0.0991581565 0.00019152974 0)
(0.0991256314 0.00028526581 0)
(0.0990781063 0.000376516798 0)
(0.0990169496 0.000454435279 0)
(0.0989450932 0.000511168916 0)
(0.0988664601 0.000542239272 0)
(0.0987854378 0.000546234123 0)
(0.0987064396 0.000524195045 0)
(0.0986335777 0.000479056619 0)
(0.0985704329 0.000415342255 0)
(0.0985198489 0.000339150125 0)
(0.0984836818 0.000258260921 0)
(0.0984624977 0.000182020828 0)
(0.098455287 0.000120639678 0)
(0.0984593417 8.37644658e-05 0)
(0.0984704572 7.85451076e-05 0)
(0.098483449 0.000107715236 0)
(0.0984928675 0.000168399052 0)
(0.0984939184 0.000252312442 0)
(0.0984834126 0.000347416457 0)
(0.0984603407 0.00044064577 0)
(0.0984258719 0.000520952809 0)
(0.0983828151 0.000581715009 0)
(0.0983347239 0.000621738929 0)
(0.0982849332 0.000644603875 0)
(0.098235818 0.000656707945 0)
(0.0981884685 0.00066483786 0)
(0.0981428019 0.000674172019 0)
(0.0980979743 0.000687320098 0)
(0.0980528782 0.000704481791 0)
(0.0980065345 0.000724346422 0)
(0.0979582836 0.000745161186 0)
(0.0979077882 0.000765502636 0)
(0.0978549276 0.000784566941 0)
(0.0977996769 0.000802065603 0)
(0.0977420278 0.00081794834 0)
(0.0976819678 0.00083215616 0)
(0.0976194966 0.000844502441 0)
(0.0975546541 0.000854674502 0)
(0.0974875416 0.00086229499 0)
(0.0974183289 0.000866984476 0)
(0.0973472517 0.000868396857 0)
(0.0972746049 0.00086622804 0)
(0.0972007359 0.000860211541 0)
(0.0971260386 0.000850113338 0)
(0.0970509494 0.000835731126 0)
(0.096975942 0.000816897242 0)
(0.0969015229 0.000793482405 0)
(0.0968282264 0.000765398133 0)
(0.0967566098 0.000732597144 0)
(0.0966872492 0.000695072043 0)
(0.0966207344 0.000652853043 0)
(0.0965576645 0.000606005358 0)
(0.0964986431 0.00055462672 0)
(0.0964442737 0.000498845346 0)
(0.096395156 0.00043881849 0)
(0.0963518833 0.000374731802 0)
(0.0963150379 0.000306798073 0)
(0.0962851856 0.000235255454 0)
(0.0962628681 0.000160361391 0)
(0.0962486425 8.23890387e-05 0)
(0.0962432395 1.7329032e-06 0)
(0.0962470607 -8.09298763e-05 0)
(0.0962603838 -0.000165316585 0)
(0.0962837098 -0.000250972649 0)
(0.096317358 -0.000337356032 0)
(0.0963615627 -0.000423876749 0)
(0.0964164723 -0.000509903079 0)
(0.0964821353 -0.000594754267 0)
(0.0965584887 -0.000677705931 0)
(0.0966453472 -0.000758004627 0)
(0.0967423959 -0.000834883225 0)
(0.0968491851 -0.000907577546 0)
(0.0969651315 -0.000975345065 0)
(0.0970895221 -0.00103748432 0)
(0.0972215224 -0.00109335401 0)
(0.0973601889 -0.00114239126 0)
(0.0975044843 -0.00118412825 0)
(0.0976532974 -0.00121820642 0)
(0.0978054634 -0.00124438726 0)
(0.0979597886 -0.00126255892 0)
(0.0981150739 -0.00127273826 0)
(0.0982701399 -0.00127506815 0)
(0.09842385 -0.00126981048 0)
(0.0985751313 -0.00125733527 0)
(0.098722993 -0.00123810693 0)
(0.0988665409 -0.00121266819 0)
(0.0990049877 -0.0011816228 0)
(0.0991376603 -0.00114561779 0)
(0.0992640023 -0.00110532586 0)
(0.099383574 -0.0010614288 0)
(0.0994960483 -0.00101460231 0)
(0.0996012056 -0.000965502522 0)
(0.0996989255 -0.000914754684 0)
(0.0997891777 -0.00086294381 0)
(0.0998720126 -0.000810607507 0)
(0.0999475509 -0.000758230914 0)
(0.100015975 -0.000706243632 0)
(0.100077518 -0.000655019196 0)
(0.10013246 -0.000604878041 0)
(0.10018111 -0.000556091392 0)
(0.100223803 -0.000508883891 0)
(0.100260886 -0.000463435887 0)
(0.100292713 -0.000419886418 0)
(0.100319643 -0.000378336821 0)
(0.100342029 -0.000338854631 0)
(0.100360219 -0.00030147686 0)
(0.100374552 -0.000266213455 0)
(0.100385356 -0.00023305165 0)
(0.100392946 -0.000201960324 0)
(0.10039762 -0.000172893647 0)
(0.100399662 -0.000145793963 0)
(0.100399337 -0.00012059366 0)
(0.100396895 -9.72147697e-05 0)
(0.100392571 -7.55692901e-05 0)
(0.100386586 -5.55605285e-05 0)
(0.100379162 -3.70919775e-05 0)
(0.100370533 -2.00835276e-05 0)
(0.10036093 -4.55819565e-06 0)
(0.10035044 9.58557356e-06 0)
(0.100339103 2.23261721e-05 0)
(0.100327061 3.371052e-05 0)
(0.100314425 4.38137595e-05 0)
(0.100301269 5.27221212e-05 0)
(0.100287661 6.05350352e-05 0)
(0.100273664 6.73637608e-05 0)
(0.100259347 7.33147949e-05 0)
(0.100244782 7.84778652e-05 0)
(0.10023004 8.2930262e-05 0)
(0.100215179 8.67414943e-05 0)
(0.10020025 8.99738737e-05 0)
(0.100185299 9.26831586e-05 0)
(0.100170369 9.49186474e-05 0)
(0.100155504 9.6722735e-05 0)
(0.100140746 9.81315692e-05 0)
(0.100126131 9.91767435e-05 0)
(0.100111692 9.98868993e-05 0)
(0.100097456 0.000100288685 0)
(0.100083445 0.000100407306 0)
(0.100069679 0.000100266868 0)
(0.100056171 9.98904347e-05 0)
(0.100042935 9.92999148e-05 0)
(0.100029979 9.8515917e-05 0)
(0.100017313 9.75576535e-05 0)
(0.100004944 9.64428829e-05 0)
(0.0999928764 9.51879017e-05 0)
(0.0999811157 9.38075747e-05 0)
(0.0999696657 9.23153891e-05 0)
(0.0999585298 9.07235296e-05 0)
(0.0999477104 8.904297e-05 0)
(0.0999372097 8.7283571e-05 0)
(0.0999270291 8.5454177e-05 0)
(0.0999171695 8.35627141e-05 0)
(0.0999076314 8.16162858e-05 0)
(0.0998984149 7.96212639e-05 0)
(0.0998895197 7.75833742e-05 0)
(0.0998809451 7.5507769e-05 0)
(0.0998726902 7.3399084e-05 0)
(0.0998647539 7.12614757e-05 0)
(0.0998571348 6.90986403e-05 0)
(0.0998498316 6.6913816e-05 0)
(0.0998428429 6.47097766e-05 0)
(0.0998361672 6.24888029e-05 0)
(0.0998298037 6.02526985e-05 0)
(0.099823749 5.8002523e-05 0)
(0.0998180094 5.57395646e-05 0)
(0.0998125576 5.34602946e-05 0)
(0.0998074836 5.11806146e-05 0)
(0.099802473 4.8817275e-05 0)
(0.099798664 4.67629737e-05 0)
(0.09979236 4.31309395e-05 0)
(0.0999985971 5.17146917e-05 0)
(0.0999848357 0.000166502928 0)
(0.0999540201 0.000284027722 0)
(0.0999053 0.000392640259 0)
(0.0998412986 0.000483018975 0)
(0.0997656478 0.000547809122 0)
(0.0996822119 0.000582448485 0)
(0.0995951647 0.000586157578 0)
(0.0995087967 0.000561412569 0)
(0.0994271152 0.000511962786 0)
(0.0993536407 0.000441481605 0)
(0.0992913711 0.000354321886 0)
(0.099242581 0.000257582003 0)
(0.0992083195 0.000162378666 0)
(0.0991878187 8.28163956e-05 0)
(0.0991784471 3.29177066e-05 0)
(0.0991755226 2.27645956e-05 0)
(0.0991727425 5.50730868e-05 0)
(0.099164167 0.000124445642 0)
(0.0991452669 0.00021967458 0)
(0.0991130213 0.00032662549 0)
(0.0990663721 0.000430812807 0)
(0.0990063456 0.000519728288 0)
(0.0989356151 0.000584274787 0)
(0.0988579286 0.00061920005 0)
(0.0987775742 0.000622774213 0)
(0.0986989328 0.000596096419 0)
(0.0986261444 0.000542428826 0)
(0.0985628661 0.000466835123 0)
(0.0985120548 0.000376185038 0)
(0.098475706 0.000279321636 0)
(0.0984545434 0.00018697757 0)
(0.0984477338 0.000111009793 0)
(0.0984527439 6.2761821e-05 0)
(0.0984654044 5.07753473e-05 0)
(0.0984803347 7.85476629e-05 0)
(0.0984918954 0.000143158132 0)
(0.0984952668 0.000235296909 0)
(0.0984872355 0.000341050724 0)
(0.0984666764 0.000445081028 0)
(0.0984346039 0.000534249105 0)
(0.0983937016 0.000600551096 0)
(0.0983474655 0.00064242052 0)
(0.0982992399 0.000664038688 0)
(0.0982514511 0.000673046909 0)
(0.098205247 0.000677632854 0)
(0.0981605803 0.000684096934 0)
(0.0981166089 0.000695651775 0)
(0.0980721973 0.000712580156 0)
(0.0980263217 0.000733308833 0)
(0.0979782746 0.000755706285 0)
(0.0979276762 0.000778031571 0)
(0.0978743714 0.00079929953 0)
(0.0978183088 0.000819160598 0)
(0.0977594605 0.000837563505 0)
(0.0976977999 0.000854450612 0)
(0.0976333185 0.000869608654 0)
(0.0975660547 0.00088266805 0)
(0.0974961162 0.00089317721 0)
(0.0974236867 0.000900679574 0)
(0.0973490237 0.000904757732 0)
(0.0972724511 0.000905044579 0)
(0.0971943523 0.000901217975 0)
(0.0971151631 0.000892994043 0)
(0.097035367 0.000880125517 0)
(0.0969554887 0.00086240435 0)
(0.0968760868 0.000839665322 0)
(0.0967977463 0.000811788346 0)
(0.0967210704 0.000778698953 0)
(0.0966466739 0.000740367438 0)
(0.0965751776 0.000696807328 0)
(0.0965072058 0.000648073438 0)
(0.0964433848 0.000594259511 0)
(0.0963843424 0.000535495634 0)
(0.096330707 0.000471945867 0)
(0.0962831053 0.000403806483 0)
(0.0962421601 0.000331305922 0)
(0.0962084862 0.000254708564 0)
(0.0961826927 0.000174320483 0)
(0.0961653563 9.04937339e-05 0)
(0.0961569536 3.59239411e-06 0)
(0.0961580804 -8.60905685e-05 0)
(0.0961693445 -0.00017802599 0)
(0.0961911659 -0.000271706293 0)
(0.0962239283 -0.000366555109 0)
(0.0962679397 -0.000461917874 0)
(0.0963234139 -0.000557069815 0)
(0.0963904536 -0.000651223385 0)
(0.0964690383 -0.000743536333 0)
(0.0965590128 -0.000833123973 0)
(0.0966600769 -0.000919075092 0)
(0.0967717773 -0.00100047156 0)
(0.0968935048 -0.00107641179 0)
(0.0970244958 -0.00114603671 0)
(0.0971638397 -0.00120855658 0)
(0.0973104917 -0.00126327655 0)
(0.0974632913 -0.00130961951 0)
(0.0976209861 -0.00134714455 0)
(0.0977822588 -0.00137556033 0)
(0.097945757 -0.00139473258 0)
(0.0981101241 -0.00140468584 0)
(0.0982740295 -0.00140559937 0)
(0.0984361969 -0.00139779775 0)
(0.0985954299 -0.00138173672 0)
(0.0987506331 -0.00135798526 0)
(0.0989008286 -0.00132720498 0)
(0.0990451683 -0.00129012793 0)
(0.0991829401 -0.00124753398 0)
(0.0993135702 -0.00120022886 0)
(0.0994366212 -0.00114902354 0)
(0.0995517863 -0.0010947158 0)
(0.0996588807 -0.00103807425 0)
(0.0997578313 -0.000979825213 0)
(0.0998486645 -0.000920642369 0)
(0.0999314941 -0.000861139276 0)
(0.100006508 -0.00080186457 0)
(0.100073957 -0.000743299699 0)
(0.100134142 -0.000685859213 0)
(0.100187405 -0.000629893431 0)
(0.100234114 -0.000575692281 0)
(0.10027466 -0.000523489276 0)
(0.100309439 -0.000473465624 0)
(0.100338854 -0.000425754758 0)
(0.100363303 -0.000380447204 0)
(0.100383175 -0.000337595512 0)
(0.100398849 -0.000297219007 0)
(0.10041069 -0.000259308353 0)
(0.100419046 -0.000223830095 0)
(0.100424248 -0.000190731103 0)
(0.100426612 -0.000159942779 0)
(0.100426435 -0.000131385018 0)
(0.100423998 -0.000104969905 0)
(0.100419566 -8.06054724e-05 0)
(0.100413387 -5.82003731e-05 0)
(0.10040569 -3.7667175e-05 0)
(0.100396658 -1.89128428e-05 0)
(0.100386352 -1.77546912e-06 0)
(0.100374976 1.38536645e-05 0)
(0.100362853 2.79538443e-05 0)
(0.100350105 4.0602684e-05 0)
(0.100336793 5.19024074e-05 0)
(0.100322981 6.19351968e-05 0)
(0.100308736 7.07873975e-05 0)
(0.100294125 7.85465636e-05 0)
(0.100279207 8.53014355e-05 0)
(0.100264043 9.11412852e-05 0)
(0.100248693 9.61483012e-05 0)
(0.10023322 0.000100396046 0)
(0.100217686 0.000103951899 0)
(0.100202149 0.000106878591 0)
(0.100186664 0.000109235 0)
(0.100171277 0.000111076257 0)
(0.100156022 0.000112453318 0)
(0.10014093 0.000113412639 0)
(0.100126026 0.000113995951 0)
(0.100111332 0.000114240303 0)
(0.100096866 0.000114178501 0)