/*--------------------------------*- C++ -*----------------------------------*\
| =========                 |                                                 |
| \\      /  F ield         | OpenFOAM: The Open Source CFD Toolbox           |
|  \\    /   O peration     | Version:  v2012                                 |
|   \\  /    A nd           | Website:  www.openfoam.com                      |
|    \\/     M anipulation  |                                                 |
\*---------------------------------------------------------------------------*/
FoamFile
{
    version     2.0;
    format      ascii;
    class       volVectorField;
    location    "2.84";
    object      U;
}
// * * * * * * * * * * * * * * * * * * * * * * * * * * * * * * * * * * * * * //

dimensions      [0 1 -1 0 0 0 0];


internalField   nonuniform List<vector> 
28416
(
(0.100001381 -1.05657743e-05 0)
(0.100013562 -3.49842166e-05 0)
(0.100039108 -6.17318809e-05 0)
(0.100078073 -8.63151672e-05 0)
(0.100127506 -0.000102488468 0)
(0.100182722 -0.000105316531 0)
(0.100238313 -9.30116063e-05 0)
(0.100288764 -6.6879048e-05 0)
(0.100328755 -3.01914011e-05 0)
(0.100354313 1.34130654e-05 0)
(0.10036754 6.11570768e-05 0)
(0.100371002 0.00010569012 0)
(0.100363841 0.000142199741 0)
(0.100347391 0.000168241769 0)
(0.10032433 0.000182535704 0)
(0.100297437 0.000185052092 0)
(0.100269421 0.000176823327 0)
(0.100242753 0.000159561485 0)
(0.10021952 0.000135465765 0)
(0.100201306 0.000107317527 0)
(0.100188991 7.86943785e-05 0)
(0.100182487 5.39604466e-05 0)
(0.100180339 3.77245789e-05 0)
(0.100179815 3.40445852e-05 0)
(0.100177279 4.52302023e-05 0)
(0.100168363 7.12325477e-05 0)
(0.100148763 0.00010974856 0)
(0.10011524 0.000156677606 0)
(0.100066071 0.000206930274 0)
(0.100001073 0.000255378563 0)
(0.099921426 0.000297618862 0)
(0.0998293219 0.000330417881 0)
(0.0997275253 0.000351883906 0)
(0.09961899 0.000361451092 0)
(0.0995065931 0.0003597622 0)
(0.0993929654 0.000348516431 0)
(0.099280366 0.000330317554 0)
(0.099170539 0.000308518172 0)
(0.0990645163 0.000287018013 0)
(0.0989623789 0.000269959624 0)
(0.0988630541 0.000261288552 0)
(0.0987642809 0.000264198723 0)
(0.098662866 0.000280545329 0)
(0.098555239 0.000310361124 0)
(0.0984381694 0.000351646766 0)
(0.0983094296 0.000400587367 0)
(0.098168219 0.000452236928 0)
(0.0980152531 0.000501535714 0)
(0.0978525167 0.000544374458 0)
(0.0976827688 0.000578376356 0)
(0.0975089479 0.000603159359 0)
(0.0973336432 0.0006200308 0)
(0.0971587583 0.000631271692 0)
(0.0969854257 0.000639298564 0)
(0.0968141395 0.000645994002 0)
(0.0966450156 0.000652384586 0)
(0.0964780624 0.000658681086 0)
(0.0963133729 0.000664559699 0)
(0.096151202 0.000669507722 0)
(0.0959919443 0.000673087434 0)
(0.0958360615 0.000675052894 0)
(0.0956840069 0.000675336095 0)
(0.095536177 0.000673965146 0)
(0.0953928975 0.000670979278 0)
(0.0952544326 0.000666378544 0)
(0.0951210035 0.000660113751 0)
(0.0949928039 0.000652101518 0)
(0.0948700103 0.000642245293 0)
(0.0947527856 0.000630450261 0)
(0.0946412815 0.000616629351 0)
(0.0945356409 0.000600703451 0)
(0.0944360018 0.000582600069 0)
(0.0943425031 0.000562253181 0)
(0.0942552904 0.000539605 0)
(0.0941745227 0.000514609056 0)
(0.0941003803 0.000487233607 0)
(0.0940330765 0.000457464021 0)
(0.0939728824 0.000425302115 0)
(0.0939201513 0.000390751837 0)
(0.0938752699 0.000353793568 0)
(0.0938385893 0.000314384439 0)
(0.0938104415 0.000272447898 0)
(0.0937910645 0.000227818221 0)
(0.0937805044 0.000180337459 0)
(0.0937786442 0.000129972929 0)
(0.0937852445 7.69339957e-05 0)
(0.0937986813 2.1916149e-05 0)
(0.0938199864 -3.20131716e-05 0)
(0.093853624 -8.53208349e-05 0)
(0.0939007967 -0.000139563645 0)
(0.0939602996 -0.000194949408 0)
(0.0940318271 -0.000251168539 0)
(0.0941156117 -0.000307958113 0)
(0.0942116415 -0.000364998555 0)
(0.0943197396 -0.000421861571 0)
(0.094439697 -0.000478065653 0)
(0.0945712214 -0.000533101961 0)
(0.0947138909 -0.000586434552 0)
(0.0948671539 -0.000637505664 0)
(0.0950303316 -0.000685747757 0)
(0.0952026202 -0.000730598958 0)
(0.0953830967 -0.000771521443 0)
(0.0955707298 -0.000808021341 0)
(0.0957643933 -0.000839667595 0)
(0.0959628816 -0.000866107729 0)
(0.0961649289 -0.000887079407 0)
(0.0963692301 -0.000902417495 0)
(0.0965744651 -0.000912056905 0)
(0.0967793237 -0.000916031761 0)
(0.0969825312 -0.000914471437 0)
(0.0971828716 -0.000907593854 0)
(0.0973792097 -0.000895696406 0)
(0.0975705084 -0.00087914485 0)
(0.0977558428 -0.000858360598 0)
(0.0979344098 -0.000833807044 0)
(0.0981055335 -0.000805975527 0)
(0.0982686672 -0.000775371571 0)
(0.0984233908 -0.000742502022 0)
(0.0985694068 -0.000707863497 0)
(0.0987065322 -0.000671932441 0)
(0.09883469 -0.000635156984 0)
(0.0989538981 -0.000597950568 0)
(0.0990642587 -0.000560687317 0)
(0.0991659468 -0.00052369909 0)
(0.0992591991 -0.000487274153 0)
(0.0993443026 -0.000451657364 0)
(0.0994215848 -0.000417051367 0)
(0.0994914028 -0.000383618099 0)
(0.0995541356 -0.000351480426 0)
(0.0996101783 -0.000320724782 0)
(0.0996599374 -0.000291405675 0)
(0.099703825 -0.000263550933 0)
(0.0997422515 -0.000237165263 0)
(0.0997756219 -0.000212232167 0)
(0.0998043362 -0.00018871732 0)
(0.0998287898 -0.000166574923 0)
(0.0998493699 -0.000145754021 0)
(0.0998664504 -0.00012620177 0)
(0.0998803914 -0.00010786632 0)
(0.0998915399 -9.07030744e-05 0)
(0.0999002259 -7.46823882e-05 0)
(0.0999067518 -5.97958151e-05 0)
(0.0999113783 -4.60581198e-05 0)
(0.0999143097 -3.34996159e-05 0)
(0.0999156713 -2.21412157e-05 0)
(0.0999154819 -1.19488607e-05 0)
(0.0999136743 -2.76340731e-06 0)
(0.0999106734 5.69929964e-06 0)
(0.0999069429 1.32884064e-05 0)
(0.0999023766 1.99810439e-05 0)
(0.0998969248 2.58830944e-05 0)
(0.0998906988 3.10861408e-05 0)
(0.0998838031 3.56632732e-05 0)
(0.0998763243 3.96803348e-05 0)
(0.0998683475 4.31948826e-05 0)
(0.0998599533 4.62571082e-05 0)
(0.0998512143 4.89111926e-05 0)
(0.099842197 5.11958786e-05 0)
(0.0998329611 5.31448461e-05 0)
(0.0998235601 5.47872999e-05 0)
(0.0998140409 5.61487674e-05 0)
(0.0998044443 5.72519728e-05 0)
(0.0997948056 5.81176356e-05 0)
(0.0997851551 5.8765071e-05 0)
(0.0997755189 5.9212548e-05 0)
(0.0997659196 5.94774439e-05 0)
(0.0997563768 5.95762718e-05 0)
(0.0997469078 5.95246444e-05 0)
(0.099737528 5.93372142e-05 0)
(0.0997282508 5.90276081e-05 0)
(0.0997190886 5.86083637e-05 0)
(0.0997100521 5.80908766e-05 0)
(0.0997011509 5.74853683e-05 0)
(0.0996923934 5.68008881e-05 0)
(0.099683787 5.60453604e-05 0)
(0.0996753378 5.52256791e-05 0)
(0.0996670512 5.43478436e-05 0)
(0.0996589312 5.34171186e-05 0)
(0.0996509817 5.24381585e-05 0)
(0.0996432057 5.14150709e-05 0)
(0.0996356059 5.03515211e-05 0)
(0.0996281842 4.9250808e-05 0)
(0.0996209439 4.81159157e-05 0)
(0.0996138842 4.69491666e-05 0)
(0.0996070197 4.57532401e-05 0)
(0.0996003163 4.45250815e-05 0)
(0.099593917 4.32806621e-05 0)
(0.0995873757 4.19390169e-05 0)
(0.0995823791 4.08143834e-05 0)
(0.0995736798 3.84634284e-05 0)
(0.100000839 -2.12987671e-05 0)
(0.100010302 -6.99459101e-05 0)
(0.10003338 -0.000122369907 0)
(0.100072134 -0.000170812947 0)
(0.100124298 -0.000204484284 0)
(0.100184797 -0.000214736347 0)
(0.100247432 -0.000198202717 0)
(0.100305815 -0.000156799673 0)
(0.100354228 -9.61209205e-05 0)
(0.100389406 -2.33817845e-05 0)
(0.100408238 5.37349312e-05 0)
(0.100409621 0.000125641894 0)
(0.100396727 0.000185520852 0)
(0.100372978 0.000229068315 0)
(0.100341661 0.000254208771 0)
(0.10030631 0.000260949398 0)
(0.10027036 0.000250840824 0)
(0.100236922 0.000226388789 0)
(0.100208693 0.000190804661 0)
(0.100187817 0.000148228961 0)
(0.100175613 0.000104160548 0)
(0.10017214 6.55251333e-05 0)
(0.10017585 3.99295302e-05 0)
(0.100183483 3.42865444e-05 0)
(0.100190386 5.27910844e-05 0)
(0.100191186 9.56134229e-05 0)
(0.10018057 0.000158990369 0)
(0.100154197 0.000236143844 0)
(0.100109438 0.000318713314 0)
(0.100045666 0.000398365741 0)
(0.0999641222 0.000468103302 0)
(0.0998674921 0.000522997659 0)
(0.0997593471 0.000560369965 0)
(0.0996436108 0.000579591797 0)
(0.0995241429 0.000581728658 0)
(0.0994044542 0.000569215142 0)
(0.0992875068 0.000545657745 0)
(0.0991755265 0.000515742466 0)
(0.0990697829 0.000485118871 0)
(0.0989703535 0.000460083501 0)
(0.0988759461 0.000446928076 0)
(0.0987838852 0.000450956317 0)
(0.0986903538 0.000475359339 0)
(0.0985909187 0.00052028605 0)
(0.098481288 0.000582474641 0)
(0.0983581451 0.000655688468 0)
(0.0982198395 0.000731945953 0)
(0.0980667186 0.00080324291 0)
(0.0979009852 0.000863266258 0)
(0.0977261226 0.000908581992 0)
(0.0975460692 0.000938959287 0)
(0.0973644009 0.000956798212 0)
(0.0971837533 0.00096593822 0)
(0.097005616 0.000970311157 0)
(0.0968304824 0.00097289471 0)
(0.0966582282 0.000975238732 0)
(0.0964885351 0.000977575416 0)
(0.096321211 0.000979308068 0)
(0.0961563327 0.000979587502 0)
(0.0959942286 0.0009777392 0)
(0.0958353674 0.000973440197 0)
(0.0956802361 0.000966679557 0)
(0.0955292569 0.000957610456 0)
(0.095382759 0.000946402339 0)
(0.0952409911 0.000933154734 0)
(0.0951041506 0.000917879782 0)
(0.0949724084 0.00090052695 0)
(0.094845924 0.000881017375 0)
(0.0947248506 0.000859267357 0)
(0.0946093363 0.000835196585 0)
(0.0944995252 0.000808726674 0)
(0.0943955612 0.000779777475 0)
(0.0942975939 0.000748265671 0)
(0.0942057846 0.000714106585 0)
(0.0941203136 0.000677217738 0)
(0.0940413869 0.000637522148 0)
(0.0939692431 0.00059494915 0)
(0.0939041601 0.000549430131 0)
(0.0938464506 0.000500878201 0)
(0.0937964323 0.000449159965 0)
(0.0937543777 0.000394109448 0)
(0.0937204685 0.00033555418 0)
(0.093694844 0.000273314516 0)
(0.0936777003 0.000207346211 0)
(0.0936693379 0.000137819112 0)
(0.0936703598 6.51712112e-05 0)
(0.0936825259 -1.01335813e-05 0)
(0.0937057028 -8.65512069e-05 0)
(0.0937391163 -0.000163605904 0)
(0.0937842677 -0.000242087585 0)
(0.0938420209 -0.00032202958 0)
(0.0939125063 -0.000402989616 0)
(0.0939958827 -0.000484548697 0)
(0.094092279 -0.000566238789 0)
(0.0942016821 -0.000647462036 0)
(0.0943239654 -0.000727531427 0)
(0.094458887 -0.00080570277 0)
(0.0946060635 -0.0008811854 0)
(0.0947649583 -0.000953159631 0)
(0.0949348798 -0.0010208005 0)
(0.095114981 -0.001083302 0)
(0.0953042646 -0.00113990154 0)
(0.0955015932 -0.00118990471 0)
(0.0957057042 -0.00123270877 0)
(0.0959152308 -0.00126782346 0)
(0.0961287257 -0.00129488801 0)
(0.0963446905 -0.00131368332 0)
(0.0965616069 -0.00132413856 0)
(0.0967779691 -0.00132633195 0)
(0.0969923165 -0.00132048563 0)
(0.0972032632 -0.00130695518 0)
(0.0974095247 -0.00128621464 0)
(0.0976099393 -0.001258838 0)
(0.0978034844 -0.00122547835 0)
(0.0979892874 -0.00118684597 0)
(0.0981666309 -0.00114368638 0)
(0.0983349526 -0.00109675936 0)
(0.098493842 -0.00104681971 0)
(0.0986430315 -0.000994600426 0)
(0.0987823869 -0.000940798508 0)
(0.0989118936 -0.000886063682 0)
(0.0990316438 -0.000830990017 0)
(0.099141821 -0.000776110281 0)
(0.099242686 -0.000721892811 0)
(0.0993345624 -0.000668740555 0)
(0.0994178237 -0.000616991963 0)
(0.099492881 -0.000566923284 0)
(0.0995601731 -0.000518751905 0)
(0.0996201563 -0.000472640497 0)
(0.0996732962 -0.000428702082 0)
(0.0997200602 -0.000387005709 0)
(0.0997609127 -0.000347582374 0)
(0.0997963116 -0.000310431052 0)
(0.099826704 -0.000275524414 0)
(0.0998525213 -0.000242814072 0)
(0.0998741766 -0.000212236106 0)
(0.0998920642 -0.000183718272 0)
(0.0999065587 -0.000157186919 0)
(0.099918011 -0.000132570287 0)
(0.0999267431 -0.000109799799 0)
(0.0999330446 -8.88117886e-05 0)
(0.0999371683 -6.95461051e-05 0)
(0.0999393322 -5.19378285e-05 0)
(0.0999397337 -3.59118209e-05 0)
(0.0999385703 -2.13833227e-05 0)
(0.0999360626 -8.24702745e-06 0)
(0.0999324277 3.66203455e-06 0)
(0.0999277359 1.45577878e-05 0)
(0.099922102 2.43397599e-05 0)
(0.0999157169 3.29967249e-05 0)
(0.0999086633 4.06352662e-05 0)
(0.0999010153 4.7352913e-05 0)
(0.0998928487 5.32334787e-05 0)
(0.0998842326 5.83573557e-05 0)
(0.0998752348 6.27979922e-05 0)
(0.0998659209 6.66212212e-05 0)
(0.0998563515 6.9886484e-05 0)
(0.0998465819 7.26474571e-05 0)
(0.0998366623 7.49523778e-05 0)
(0.0998266378 7.68444869e-05 0)
(0.0998165485 7.83625766e-05 0)
(0.0998064299 7.95415601e-05 0)
(0.0997963128 8.04130105e-05 0)
(0.0997862244 8.10056307e-05 0)
(0.099776188 8.13456359e-05 0)
(0.0997662239 8.14570541e-05 0)
(0.0997563498 8.13619581e-05 0)
(0.0997465809 8.10806423e-05 0)
(0.0997369303 8.06317546e-05 0)
(0.0997274095 8.00323946e-05 0)
(0.0997180284 7.9298189e-05 0)
(0.0997087953 7.84433528e-05 0)
(0.0996997177 7.74807487e-05 0)
(0.0996908018 7.64219504e-05 0)
(0.0996820528 7.52773195e-05 0)
(0.0996734751 7.40560964e-05 0)
(0.0996650725 7.27665011e-05 0)
(0.0996568477 7.14158356e-05 0)
(0.0996488032 7.00105307e-05 0)
(0.0996409409 6.85561265e-05 0)
(0.0996332624 6.70573189e-05 0)
(0.0996257686 6.55179865e-05 0)
(0.0996184617 6.39412453e-05 0)
(0.0996113393 6.2328902e-05 0)
(0.0996044147 6.06831249e-05 0)
(0.0995976477 5.89973935e-05 0)
(0.0995911833 5.72935684e-05 0)
(0.0995845296 5.54580404e-05 0)
(0.0995794493 5.39325287e-05 0)
(0.0995702669 5.08124591e-05 0)
(0.100001147 -2.52919663e-05 0)
(0.100012026 -8.34301208e-05 0)
(0.100036297 -0.000146232744 0)
(0.100075342 -0.000205019131 0)
(0.100126928 -0.000247379368 0)
(0.100186303 -0.000263066687 0)
(0.100247649 -0.00024777632 0)
(0.100304983 -0.00020330005 0)
(0.100352807 -0.000135887884 0)
(0.100386867 -5.4583771e-05 0)
(0.100405616 2.97424954e-05 0)
(0.100409597 0.000108766446 0)
(0.100399904 0.000175464802 0)
(0.100378849 0.000224663186 0)
(0.10034985 0.000253881506 0)
(0.100316496 0.000262980254 0)
(0.100282198 0.000253504742 0)
(0.100250048 0.000228070768 0)
(0.10022271 0.000190094071 0)
(0.100202281 0.000144054314 0)
(0.100190053 9.6000455e-05 0)
(0.100186187 5.36539587e-05 0)
(0.100189382 2.55787877e-05 0)
(0.100196579 1.9412259e-05 0)
(0.100203061 4.00451954e-05 0)
(0.10020338 8.84306519e-05 0)
(0.100192466 0.000160910634 0)
(0.100166332 0.000250023684 0)
(0.100122532 0.000346254662 0)
(0.100060396 0.000439927387 0)
(0.0999809535 0.000522752715 0)
(0.099886599 0.000588759707 0)
(0.0997806115 0.000634586583 0)
(0.099666679 0.000659298093 0)
(0.0995485034 0.000663977448 0)
(0.099429511 0.000651326107 0)
(0.0993126371 0.000625409781 0)
(0.0992001336 0.000591546725 0)
(0.0990933516 0.00055619405 0)
(0.0989924971 0.000526617045 0)
(0.0988964229 0.00051017456 0)
(0.0988025831 0.000513206143 0)
(0.0987072724 0.000539713458 0)
(0.0986061753 0.000590213536 0)
(0.0984951293 0.000661203481 0)
(0.0983709185 0.000745553792 0)
(0.0982319015 0.000833867154 0)
(0.0980783084 0.000916498246 0)
(0.0979121264 0.000985661044 0)
(0.0977365986 0.00103697756 0)
(0.0975554803 0.00106999857 0)
(0.0973722726 0.00108759411 0)
(0.0971896511 0.00109451728 0)
(0.0970092277 0.00109571323 0)
(0.0968316512 0.00109496621 0)
(0.0966569377 0.00109425915 0)
(0.0964848659 0.00109388536 0)
(0.0963152895 0.00109306307 0)
(0.0961482905 0.00109067945 0)
(0.0959841792 0.00108585154 0)
(0.095823401 0.00107816402 0)
(0.0956664235 0.00106762169 0)
(0.0955136566 0.00105445552 0)
(0.0953654214 0.00103892543 0)
(0.0952219597 0.00102120326 0)
(0.0950834592 0.00100134712 0)
(0.0949500794 0.000979332761 0)
(0.0948219665 0.000955098534 0)
(0.0946992604 0.000928576189 0)
(0.0945820967 0.000899701112 0)
(0.0944706082 0.000868409229 0)
(0.0943649296 0.000834630603 0)
(0.0942652024 0.000798285925 0)
(0.0941715817 0.000759287263 0)
(0.094084242 0.00071754132 0)
(0.0940033823 0.000672952714 0)
(0.0939292304 0.000625425475 0)
(0.0938620442 0.000574861784 0)
(0.0938021081 0.000521157702 0)
(0.0937497242 0.000464203752 0)
(0.0937052042 0.000403903403 0)
(0.0936688692 0.000340213512 0)
(0.0936411091 0.000273198912 0)
(0.0936223773 0.000203030946 0)
(0.0936131174 0.000129949925 0)
(0.0936134135 5.4166747e-05 0)
(0.0936228164 -2.41196176e-05 0)
(0.0936422698 -0.000105448197 0)
(0.0936735137 -0.000189001451 0)
(0.0937171775 -0.000274319404 0)
(0.0937735239 -0.000361296342 0)
(0.0938428311 -0.000449625262 0)
(0.0939254132 -0.000538834093 0)
(0.0940214946 -0.000628362307 0)
(0.0941311626 -0.000717545211 0)
(0.0942543803 -0.000805618591 0)
(0.0943909769 -0.000891741335 0)
(0.0945406235 -0.000975012405 0)
(0.094702818 -0.00105448907 0)
(0.0948768785 -0.00112921158 0)
(0.0950619397 -0.00119823214 0)
(0.0952569563 -0.00126064646 0)
(0.0954607125 -0.00131562638 0)
(0.0956718401 -0.00136245128 0)
(0.0958888427 -0.00140053589 0)
(0.0961101264 -0.00142945251 0)
(0.0963340352 -0.00144894641 0)
(0.0965588897 -0.00145894349 0)
(0.0967830266 -0.00145955031 0)
(0.0970048373 -0.00145104669 0)
(0.097222803 -0.00143387166 0)
(0.0974355261 -0.00140860396 0)
(0.0976417539 -0.00137593832 0)
(0.0978403975 -0.00133665914 0)
(0.0980305425 -0.00129161295 0)
(0.0982114531 -0.00124168129 0)
(0.0983825714 -0.0011877551 0)
(0.0985435098 -0.00113071168 0)
(0.0986940404 -0.00107139501 0)
(0.0988340807 -0.00101059954 0)
(0.0989636776 -0.000949057901 0)
(0.0990829901 -0.000887432231 0)
(0.0991922716 -0.000826308833 0)
(0.0992918531 -0.000766195895 0)
(0.099382127 -0.000707523783 0)
(0.0994635324 -0.000650647442 0)
(0.0995365409 -0.000595850434 0)
(0.099601645 -0.000543350299 0)
(0.0996593474 -0.00049330467 0)
(0.099710154 -0.000445817766 0)
(0.0997545679 -0.000400946999 0)
(0.0997930829 -0.00035870974 0)
(0.0998261777 -0.000319090371 0)
(0.0998543124 -0.000282046802 0)
(0.0998779293 -0.000247515845 0)
(0.0998974515 -0.00021541818 0)
(0.0999132773 -0.000185661717 0)
(0.0999257798 -0.000158144121 0)
(0.0999353131 -0.000132756024 0)
(0.0999422143 -0.000109382064 0)
(0.0999468035 -8.79050115e-05 0)
(0.099949384 -6.82174748e-05 0)
(0.099950234 -5.02262001e-05 0)
(0.0999495818 -3.38425487e-05 0)
(0.0999475895 -1.89766285e-05 0)
(0.0999443682 -5.55716968e-06 0)
(0.0999399721 6.48095208e-06 0)
(0.0999345156 1.72570549e-05 0)
(0.0999282013 2.69176357e-05 0)
(0.0999211611 3.55281576e-05 0)
(0.099913471 4.31588722e-05 0)
(0.0999052159 4.98860537e-05 0)
(0.0998964808 5.57832722e-05 0)
(0.09988734 6.09232482e-05 0)
(0.0998778622 6.53757535e-05 0)
(0.0998681114 6.92051909e-05 0)
(0.0998581467 7.2470342e-05 0)
(0.0998480214 7.52246043e-05 0)
(0.0998377832 7.75162546e-05 0)
(0.0998274748 7.93888426e-05 0)
(0.0998171334 8.08816892e-05 0)
(0.0998067912 8.20304137e-05 0)
(0.0997964765 8.28674307e-05 0)
(0.0997862132 8.34223773e-05 0)
(0.099776022 8.37224516e-05 0)
(0.0997659208 8.37926646e-05 0)
(0.0997559251 8.36560203e-05 0)
(0.0997460481 8.33336451e-05 0)
(0.0997363015 8.28448841e-05 0)
(0.0997266955 8.22073798e-05 0)
(0.0997172388 8.14371417e-05 0)
(0.0997079391 8.05486159e-05 0)
(0.0996988029 7.95547603e-05 0)
(0.0996898357 7.84671293e-05 0)
(0.0996810423 7.72959716e-05 0)
(0.0996724263 7.60503402e-05 0)
(0.0996639906 7.47382065e-05 0)
(0.0996557377 7.33665709e-05 0)
(0.099647669 7.19415499e-05 0)
(0.0996397856 7.04684324e-05 0)
(0.0996320884 6.8951729e-05 0)
(0.0996245774 6.73951698e-05 0)
(0.0996172537 6.58017802e-05 0)
(0.099610114 6.41733108e-05 0)
(0.0996031699 6.25122241e-05 0)
(0.0995963812 6.08121506e-05 0)
(0.0995898897 5.90977623e-05 0)
(0.0995832222 5.72552312e-05 0)
(0.0995781192 5.57393443e-05 0)
(0.0995691404 5.26545828e-05 0)
(0.100000984 -3.21143464e-05 0)
(0.10001121 -0.000106712527 0)
(0.100035211 -0.000188093714 0)
(0.100075072 -0.000264949106 0)
(0.100128906 -0.000321058058 0)
(0.10019187 -0.000342969588 0)
(0.100257661 -0.000324906085 0)
(0.100319607 -0.000269019341 0)
(0.100371548 -0.000183316976 0)
(0.100408782 -7.93037764e-05 0)
(0.100429075 3.04854979e-05 0)
(0.100432595 0.000133736019 0)
(0.100420995 0.000220299788 0)
(0.100397135 0.000284022753 0)
(0.10036474 0.000322035708 0)
(0.100327778 0.000334214481 0)
(0.100290114 0.000322508152 0)
(0.1002553 0.000290178307 0)
(0.100226408 0.000241479594 0)
(0.10020585 0.000182030196 0)
(0.100195069 0.000119501427 0)
(0.1001941 6.37830424e-05 0)
(0.100201157 2.60393749e-05 0)
(0.100212746 1.66151768e-05 0)
(0.100224347 4.19077912e-05 0)
(0.100230507 0.000102952501 0)
(0.100225306 0.000194844993 0)
(0.100203829 0.000307996218 0)
(0.100163056 0.000430259577 0)
(0.100102101 0.000549306398 0)
(0.100022081 0.000654620306 0)
(0.0999256883 0.000738685658 0)
(0.0998166424 0.00079732285 0)
(0.099699136 0.000829403431 0)
(0.0995773884 0.000836287424 0)
(0.0994553114 0.000821297673 0)
(0.0993362529 0.000789412375 0)
(0.0992227538 0.000747165963 0)
(0.099116284 0.000702565485 0)
(0.0990169869 0.000664726962 0)
(0.0989235088 0.000642985785 0)
(0.0988329992 0.000645454404 0)
(0.0987413621 0.000677300468 0)
(0.0986438027 0.00073925579 0)
(0.0985356245 0.000826927981 0)
(0.0984131173 0.000931316251 0)
(0.0982743048 0.00104055971 0)
(0.0981193258 0.00114250642 0)
(0.0979503257 0.00122736761 0)
(0.097770889 0.00128965268 0)
(0.0975851917 0.00132881159 0)
(0.0973971347 0.0013484663 0)
(0.0972097021 0.00135461173 0)
(0.0970246918 0.00135349722 0)
(0.0968428222 0.00134992614 0)
(0.0966640944 0.00134644329 0)
(0.0964882279 0.00134346437 0)
(0.0963150094 0.00134004035 0)
(0.0961444674 0.00133479135 0)
(0.0959768797 0.00132661661 0)
(0.0958126751 0.0013150012 0)
(0.0956523123 0.00129996272 0)
(0.0954961917 0.00128181022 0)
(0.0953446208 0.0012608951 0)
(0.0951978221 0.00123746065 0)
(0.0950559611 0.0012116061 0)
(0.0949191728 0.00118332335 0)
(0.0947875792 0.00115255207 0)
(0.0946612973 0.00111921826 0)
(0.0945404416 0.00108324752 0)
(0.0944251273 0.00104456161 0)
(0.0943154747 0.0010030706 0)
(0.0942116152 0.000958668602 0)
(0.094113698 0.00091123481 0)
(0.0940218958 0.000860637698 0)
(0.0939364098 0.000806739585 0)
(0.0938574726 0.000749399989 0)
(0.0937853492 0.000688477685 0)
(0.0937203353 0.000623832538 0)
(0.0936627539 0.000555330388 0)
(0.0936129507 0.000482852865 0)
(0.0935712898 0.000406308691 0)
(0.0935381534 0.000325644352 0)
(0.0935139341 0.000240806845 0)
(0.0934989723 0.000151762289 0)
(0.0934938342 5.85373325e-05 0)
(0.0934994706 -3.84901122e-05 0)
(0.0935164949 -0.000138433184 0)
(0.0935453031 -0.000241135097 0)
(0.0935865743 -0.00034646408 0)
(0.0936409743 -0.000454087829 0)
(0.0937090266 -0.000563496832 0)
(0.0937911582 -0.000674071433 0)
(0.0938877069 -0.000785088762 0)
(0.0939988896 -0.000895702292 0)
(0.0941247828 -0.00100494481 0)
(0.0942653024 -0.00111174822 0)
(0.0944201799 -0.00121496558 0)
(0.0945889421 -0.00131339746 0)
(0.0947708981 -0.00140582485 0)
(0.0949651326 -0.00149104646 0)
(0.095170508 -0.00156791831 0)
(0.0953856757 -0.00163539427 0)
(0.0956090969 -0.00169256527 0)
(0.095839073 -0.0017386948 0)
(0.0960737829 -0.00177324823 0)
(0.0963113284 -0.00179591377 0)
(0.0965497818 -0.00180661369 0)
(0.096787236 -0.00180550495 0)
(0.0970218531 -0.00179296939 0)
(0.0972519075 -0.00176959451 0)
(0.0974758244 -0.0017361466 0)
(0.0976922087 -0.00169353811 0)
(0.0978998656 -0.00164279192 0)
(0.0980978126 -0.00158500435 0)
(0.0982852822 -0.00152130939 0)
(0.0984617173 -0.0014528453 0)
(0.0986267607 -0.00138072528 0)
(0.0987802396 -0.00130601274 0)
(0.0989221458 -0.00122970158 0)
(0.0990526155 -0.00115270161 0)
(0.0991719067 -0.00107582877 0)
(0.0992803779 -0.000999799711 0)
(0.0993784668 -0.00092523019 0)
(0.0994666709 -0.000852636678 0)
(0.0995455305 -0.000782440446 0)
(0.0996156127 -0.000714973432 0)
(0.0996774994 -0.000650485343 0)
(0.0997317759 -0.000589151416 0)
(0.0997790219 -0.000531080717 0)
(0.0998198037 -0.000476325162 0)
(0.0998546692 -0.000424888435 0)
(0.0998841442 -0.000376733608 0)
(0.0999087304 -0.00033178988 0)
(0.0999289019 -0.000289959825 0)
(0.099945105 -0.000251127171 0)
(0.0999577605 -0.000215163048 0)
(0.0999672631 -0.000181930481 0)
(0.0999739786 -0.000151291256 0)
(0.0999782384 -0.0001231171 0)
(0.0999803232 -9.72932533e-05 0)
(0.0999804584 -7.37077657e-05 0)
(0.0999788393 -5.2245363e-05 0)
(0.0999756583 -3.27927797e-05 0)
(0.0999710915 -1.52300257e-05 0)
(0.0999653319 5.94210546e-07 0)
(0.0999586554 1.4770139e-05 0)
(0.0999512287 2.74425201e-05 0)
(0.0999431044 3.87399959e-05 0)
(0.0999343852 4.87556332e-05 0)
(0.0999251663 5.75903017e-05 0)
(0.0999155254 6.53459782e-05 0)
(0.0999055341 7.21164644e-05 0)
(0.0998952573 7.79896521e-05 0)
(0.0998847531 8.30481437e-05 0)
(0.0998740745 8.73683337e-05 0)
(0.0998632693 9.1020326e-05 0)
(0.0998523809 9.40682202e-05 0)
(0.0998414481 9.65703898e-05 0)
(0.0998305056 9.85798095e-05 0)
(0.0998195844 0.000100144458 0)
(0.099808712 0.000101307761 0)
(0.0997979126 0.000102109046 0)
(0.0997872072 0.000102583969 0)
(0.0997766139 0.00010276492 0)
(0.0997661481 0.00010268136 0)
(0.099755823 0.000102360133 0)
(0.0997456496 0.000101825707 0)
(0.0997356371 0.000101100391 0)
(0.0997257929 0.000100204499 0)
(0.0997161233 9.91565049e-05 0)
(0.0997066333 9.7973161e-05 0)
(0.0996973268 9.66696135e-05 0)
(0.0996882071 9.52595041e-05 0)
(0.0996792765 9.37550692e-05 0)
(0.0996705369 9.21672335e-05 0)
(0.0996619894 9.05056964e-05 0)
(0.0996536348 8.87790103e-05 0)
(0.0996454736 8.69946425e-05 0)
(0.0996375057 8.51590222e-05 0)
(0.0996297311 8.32775841e-05 0)
(0.099622149 8.13547672e-05 0)
(0.0996147595 7.93941471e-05 0)
(0.0996075581 7.73978147e-05 0)
(0.0996005555 7.53689372e-05 0)
(0.0995937079 7.33002134e-05 0)
(0.0995871593 7.1222669e-05 0)
(0.0995804053 6.89992448e-05 0)
(0.09957524 6.71811634e-05 0)
(0.0995658816 6.3483218e-05 0)
(0.100001041 -3.82224356e-05 0)
(0.100011616 -0.000127263338 0)
(0.100036178 -0.000224643124 0)
(0.100076691 -0.000317315187 0)
(0.100131118 -0.00038641888 0)
(0.100194585 -0.000416132155 0)
(0.100260929 -0.000399329471 0)
(0.100323697 -0.000337998588 0)
(0.100376906 -0.000241107857 0)
(0.100416093 -0.000122083585 0)
(0.100438769 3.85664174e-06 0)
(0.100444073 0.000122212914 0)
(0.100433591 0.000222135758 0)
(0.100410737 0.000296320524 0)
(0.100379193 0.000341243366 0)
(0.100342882 0.000356640372 0)
(0.100305691 0.000344597082 0)
(0.100271194 0.000308696617 0)
(0.100242498 0.000253699111 0)
(0.100222084 0.000185978755 0)
(0.100211515 0.000114318596 0)
(0.100211137 5.01381327e-05 0)
(0.100219832 6.16645732e-06 0)
(0.100233983 -5.86669306e-06 0)
(0.100248046 2.2243197e-05 0)
(0.100256011 9.17475995e-05 0)
(0.100252203 0.000197498201 0)
(0.100232198 0.000328704982 0)
(0.10019313 0.000471314518 0)
(0.100134025 0.000610926381 0)
(0.100055824 0.000735163515 0)
(0.0999610444 0.000835087324 0)
(0.0998532654 0.000905637677 0)
(0.0997365971 0.00094532995 0)
(0.0996152271 0.000955597959 0)
(0.0994930719 0.000940165366 0)
(0.0993735092 0.000904677446 0)
(0.099259144 0.000856591467 0)
(0.0991515607 0.000805096436 0)
(0.0990510487 0.000760719191 0)
(0.0989563692 0.000734330707 0)
(0.0988647096 0.000735500472 0)
(0.0987719437 0.000770489342 0)
(0.0986732198 0.000840462499 0)
(0.0985637868 0.000940594704 0)
(0.0984398803 0.00106056493 0)
(0.0982994519 0.00118652258 0)
(0.0981425458 0.00130408681 0)
(0.0979712157 0.00140152507 0)
(0.0977889968 0.00147213573 0)
(0.0976000837 0.00151511041 0)
(0.0974084598 0.00153469173 0)
(0.0972172308 0.00153805352 0)
(0.0970283223 0.00153275045 0)
(0.0968425606 0.001524638 0)
(0.096660022 0.00151685243 0)
(0.096480469 0.00150993795 0)
(0.0963037072 0.00150276092 0)
(0.0961297714 0.0014936473 0)
(0.0959589394 0.00148125769 0)
(0.0957916382 0.00146497247 0)
(0.0956283215 0.00144483319 0)
(0.0954693804 0.00142124836 0)
(0.095315107 0.00139468517 0)
(0.0951657024 0.00136548041 0)
(0.0950213057 0.00133379278 0)
(0.0948820226 0.00129964605 0)
(0.0947479452 0.00126299661 0)
(0.0946191609 0.00122378113 0)
(0.094495757 0.00118193306 0)
(0.0943778241 0.00113737799 0)
(0.0942654611 0.00109002356 0)
(0.0941587815 0.00103975362 0)
(0.0940579199 0.000986429325 0)
(0.0939630372 0.000929894378 0)
(0.0938743251 0.000869981504 0)
(0.0937920085 0.000806518133 0)
(0.0937163474 0.000739331161 0)
(0.0936476368 0.000668251536 0)
(0.0935862065 0.000593120061 0)
(0.0935324209 0.000513795188 0)
(0.093486679 0.000430162383 0)
(0.093449418 0.000342146633 0)
(0.0934211187 0.000249724609 0)
(0.0934023207 0.000152945595 0)
(0.0933935766 5.20025421e-05 0)
(0.0933953931 -5.29780114e-05 0)
(0.093408418 -0.00016197491 0)
(0.0934334952 -0.000274712712 0)
(0.0934714576 -0.000390838143 0)
(0.0935230228 -0.00050995432 0)
(0.0935888261 -0.000631543431 0)
(0.0936694477 -0.000754933293 0)
(0.0937653847 -0.000879299125 0)
(0.0938770086 -0.00100366391 0)
(0.0940045378 -0.0011269031 0)
(0.0941480092 -0.00124775954 0)
(0.0943072484 -0.00136486609 0)
(0.0944818414 -0.00147677603 0)
(0.0946711135 -0.00158200258 0)
(0.0948741165 -0.00167906638 0)
(0.0950896275 -0.00176654815 0)
(0.0953161585 -0.00184314347 0)
(0.0955519808 -0.0019077162 0)
(0.0957951617 -0.00195934649 0)
(0.0960436127 -0.00199736997 0)
(0.0962951461 -0.0020214053 0)
(0.0965475381 -0.00203136806 0)
(0.0967985919 -0.00202747049 0)
(0.0970461994 -0.00201020714 0)
(0.097288396 -0.0019803283 0)
(0.0975234067 -0.00193880335 0)
(0.097749681 -0.00188677715 0)
(0.0979659159 -0.00182552256 0)
(0.0981710677 -0.00175639231 0)
(0.0983643515 -0.0016807729 0)
(0.0985452329 -0.00160004263 0)
(0.0987134107 -0.00151553544 0)
(0.0988687951 -0.00142851136 0)
(0.0990114816 -0.00134013386 0)
(0.0991417234 -0.00125145403 0)
(0.0992599035 -0.00116340103 0)
(0.0993665078 -0.00107677795 0)
(0.0994620995 -0.000992262393 0)
(0.0995472971 -0.000910410617 0)
(0.0996227536 -0.000831664545 0)
(0.0996891401 -0.00075636067 0)
(0.0997471309 -0.000684740375 0)
(0.0997973921 -0.000616960999 0)
(0.0998405726 -0.000553106979 0)
(0.0998772977 -0.000493200625 0)
(0.0999081642 -0.000437212285 0)
(0.0999337368 -0.000385070025 0)
(0.0999545458 -0.00033666905 0)
(0.099971086 -0.000291879926 0)
(0.0999838168 -0.000250554723 0)
(0.0999931603 -0.000212533186 0)
(0.0999995006 -0.000177648527 0)
(0.100003181 -0.000145729985 0)
(0.100004513 -0.000116604769 0)
(0.100003795 -9.00992914e-05 0)
(0.100001332 -6.60378215e-05 0)
(0.0999974051 -4.42456823e-05 0)
(0.0999922481 -2.45545057e-05 0)
(0.0999860682 -6.81097449e-06 0)
(0.0999789419 9.14188636e-06 0)
(0.0999709135 2.34748927e-05 0)
(0.0999621403 3.62649316e-05 0)
(0.0999527647 4.7627693e-05 0)
(0.0999428868 5.76789166e-05 0)
(0.0999325928 6.65232604e-05 0)
(0.0999219592 7.4261837e-05 0)
(0.0999110548 8.09905248e-05 0)
(0.0998999412 8.67992418e-05 0)
(0.0998886737 9.17721501e-05 0)
(0.0998773022 9.59873352e-05 0)