/*--------------------------------*- C++ -*----------------------------------*\
| =========                 |                                                 |
| \\      /  F ield         | OpenFOAM: The Open Source CFD Toolbox           |
|  \\    /   O peration     | Version:  v2012                                 |
|   \\  /    A nd           | Website:  www.openfoam.com                      |
|    \\/     M anipulation  |                                                 |
\*---------------------------------------------------------------------------*/
FoamFile
{
    version     2.0;
    format      ascii;
    class       surfaceVectorField;
    location    "2.84";
    object      Uf;
}
// * * * * * * * * * * * * * * * * * * * * * * * * * * * * * * * * * * * * * //

dimensions      [0 1 -1 0 0 0 0];


internalField   nonuniform List<vector> 
56481
(
(0.10000702 -2.27749965e-05 0)
(0.10000111 -1.72847501e-05 0)
(0.100026619 -4.83580476e-05 0)
(0.100011932 -5.49525521e-05 0)
(0.100059001 -7.4023524e-05 0)
(0.100036244 -9.54648537e-05 0)
(0.100102921 -9.44018181e-05 0)
(0.100075103 -0.000132643569 0)
(0.100155063 -0.000103902499 0)
(0.100125902 -0.000157919221 0)
(0.10021049 -9.91640688e-05 0)
(0.100183759 -0.000164511232 0)
(0.100263585 -7.99453272e-05 0)
(0.100242872 -0.000149853741 0)
(0.100308965 -4.8535223e-05 0)
(0.10029729 -0.000115549827 0)
(0.100342062 -8.38916973e-06 0)
(0.100341491 -6.59750744e-05 0)
(0.10036036 3.72850732e-05 0)
(0.10037186 -5.57965825e-06 0)
(0.10036936 8.34235967e-05 0)
(0.100387889 5.45658514e-05 0)
(0.100367498 0.000123944931 0)
(0.100390311 0.00011224976 0)
(0.100355705 0.000155220755 0)
(0.100380284 0.000160402129 0)
(0.100336017 0.000175388737 0)
(0.100360185 0.000195442047 0)
(0.100311079 0.000183793897 0)
(0.100332996 0.000215506929 0)
(0.100283654 0.000180937709 0)
(0.100301874 0.000220499905 0)
(0.100256337 0.000168192405 0)
(0.10026989 0.000211680928 0)
(0.100231405 0.000147513626 0)
(0.100239838 0.00019115359 0)
(0.100210689 0.000121391646 0)
(0.100214106 0.000161637595 0)
(0.100195425 9.30059516e-05 0)
(0.100194562 0.000126612894 0)
(0.100186017 6.63274136e-05 0)
(0.100182302 9.06255598e-05 0)
(0.100181762 4.58425128e-05 0)
(0.100177314 5.93206071e-05 0)
(0.100180357 3.58845819e-05 0)
(0.100178094 3.894189e-05 0)
(0.100178793 3.96373933e-05 0)
(0.100181649 3.47394272e-05 0)
(0.100173104 5.8231375e-05 0)
(0.100183833 5.00743637e-05 0)
(0.100158858 9.04905539e-05 0)
(0.100179775 8.51347533e-05 0)
(0.100132309 0.000133213085 0)
(0.100164666 0.000136857193 0)
(0.100090976 0.000181803939 0)
(0.100134718 0.000199748428 0)
(0.100033898 0.000231154418 0)
(0.100087755 0.000267036036 0)
(0.099961579 0.000276498712 0)
(0.10002337 0.000331955353 0)
(0.0998757076 0.000314018372 0)
(0.0999427741 0.000388778941 0)
(0.0997787589 0.000341150894 0)
(0.099848407 0.00043340323 0)
(0.0996735902 0.000356667499 0)
(0.0997434362 0.00046352421 0)
(0.0995631178 0.000360606646 0)
(0.0996313004 0.000478529451 0)
(0.0994500969 0.000354139316 0)
(0.099515368 0.000479260696 0)
(0.0993369743 0.000339416993 0)
(0.0993987098 0.000467776682 0)
(0.0992257539 0.000319417863 0)
(0.0992839364 0.000447182339 0)
(0.0991178238 0.000297768093 0)
(0.0991730328 0.00042151056 0)
(0.0990137365 0.000278488819 0)
(0.0990671496 0.000395569891 0)
(0.09891299 0.000265624088 0)
(0.0989663662 0.000374637227 0)
(0.0988139146 0.000262743637 0)
(0.0988695001 0.000363905285 0)
(0.0987137864 0.000272372026 0)
(0.0987740831 0.000367692806 0)
(0.0986092291 0.000295453227 0)
(0.0986766099 0.000388559733 0)
(0.0984968453 0.000331003945 0)
(0.0985730789 0.000426581656 0)
(0.0983739059 0.000376117067 0)
(0.0984597287 0.000479066577 0)
(0.0982388958 0.000426412147 0)
(0.0983337874 0.000540906542 0)
(0.0980917726 0.000476886321 0)
(0.0981940293 0.000605561678 0)
(0.0979338872 0.000522955086 0)
(0.0980409858 0.000666445843 0)
(0.0977676114 0.000561375407 0)
(0.0978767509 0.000718319485 0)
(0.0975957937 0.000590767857 0)
(0.0977044457 0.000758271534 0)
(0.0974211975 0.000611595079 0)
(0.0975275086 0.000786006758 0)
(0.0972460693 0.000625651246 0)
(0.097349022 0.000803400275 0)
(0.0970719274 0.000635285128 0)
(0.0971712558 0.000813537169 0)
(0.0968995857 0.000642646283 0)
(0.0969955208 0.0008196138 0)
(0.0967293502 0.000649189294 0)
(0.096822311 0.000824075635 0)
(0.0965612837 0.000655532836 0)
(0.0966516219 0.000828218195 0)
(0.0963954375 0.000661620393 0)
(0.0964832988 0.000832263967 0)
(0.0962319858 0.00066703371 0)
(0.0963172919 0.00083575077 0)
(0.0960712534 0.000671297578 0)
(0.0961537673 0.000837996003 0)
(0.0959136683 0.000674070164 0)
(0.0959930864 0.000838444028 0)
(0.095759688 0.000675194495 0)
(0.0958357144 0.000836813338 0)
(0.0956097372 0.00067465062 0)
(0.0956821215 0.000833069191 0)
(0.0954641772 0.000672472212 0)
(0.0955327169 0.000827307766 0)
(0.0953233028 0.000668678911 0)
(0.0953878282 0.000819639002 0)
(0.0951873566 0.000663246147 0)
(0.0952477119 0.000810117994 0)
(0.095056546 0.000656107635 0)
(0.095112577 0.000798731154 0)
(0.0949310557 0.000647173406 0)
(0.0949826062 0.000785416152 0)
(0.0948110553 0.000636347777 0)
(0.0948579671 0.000770089692 0)
(0.0946967015 0.000623539807 0)
(0.0947388181 0.000752666766 0)
(0.0945881413 0.000608666401 0)
(0.0946253089 0.000733067733 0)
(0.0944855147 0.000591651759 0)
(0.094517583 0.000711217589 0)
(0.0943889598 0.000572426626 0)
(0.0944157815 0.000687043353 0)
(0.0942986183 0.000550929091 0)
(0.0943200485 0.000660473246 0)
(0.0942146416 0.000527107027 0)
(0.0942305375 0.000631438483 0)
(0.0941371981 0.000500921333 0)
(0.0941474181 0.000599876636 0)
(0.0940664819 0.000472348814 0)
(0.0940708836 0.000565734962 0)
(0.0940027287 0.000441383067 0)
(0.0940011598 0.000528971467 0)
(0.0939462502 0.000408026978 0)
(0.0939385213 0.000489549602 0)
(0.0938974681 0.000372272703 0)
(0.093883301 0.000447408139 0)
(0.0938567616 0.000334089002 0)
(0.0938358511 0.000402406038 0)
(0.0938243753 0.00029341617 0)
(0.0937964835 0.000354319637 0)
(0.093800667 0.000250133059 0)
(0.093765455 0.00030301882 0)
(0.0937857443 0.00020407784 0)
(0.0937429543 0.000248717641 0)
(0.0937796031 0.000155155192 0)
(0.0937291024 0.000191363197 0)
(0.0937820002 0.000103453465 0)
(0.0937239911 0.000131122151 0)
(0.0937922156 4.942507e-05 0)
(0.0937278021 6.85716344e-05 0)
(0.0938084273 -5.04850897e-06 0)
(0.0937406036 5.20407291e-06 0)
(0.0938365894 -5.86670033e-05 0)
(0.0937628446 -6.2008712e-05 0)
(0.0938773033 -0.00011244224 0)
(0.0937963701 -0.00012821089 0)
(0.0939304295 -0.000167256529 0)
(0.0938425322 -0.00019550152 0)
(0.0939958808 -0.000223058971 0)
(0.0939011602 -0.00026398694 0)
(0.0940735885 -0.000279563326 0)
(0.0939721667 -0.000333325699 0)
(0.0941635134 -0.000336478337 0)
(0.0940557472 -0.00040323488 0)
(0.0942655726 -0.000393430061 0)
(0.0941519602 -0.00047332835 0)
(0.0943796044 -0.000449963612 0)
(0.0942607109 -0.000543086774 0)
(0.0945053548 -0.000505583809 0)
(0.0943818312 -0.000611923285 0)
(0.0946424612 -0.000559768254 0)
(0.0945150542 -0.00067920696 0)
(0.0947904382 -0.000611970108 0)
(0.0946599772 -0.000744267062 0)
(0.0949486717 -0.000661626713 0)
(0.0948160561 -0.000806406359 0)
(0.0951164202 -0.000708173356 0)
(0.0949826057 -0.000864919789 0)
(0.0952928199 -0.0007510602 0)
(0.0951588006 -0.000919114502 0)
(0.0954768935 -0.000789771392 0)
(0.0953436807 -0.000968331703 0)
(0.0956675617 -0.00082384447 0)
(0.0955361615 -0.00101196939 0)
(0.0958636583 -0.000852887661 0)
(0.0957350488 -0.00104950388 0)
(0.096063947 -0.000876593569 0)
(0.0959390562 -0.00108050841 0)
(0.0962671416 -0.00089474845 0)
(0.0961468273 -0.00110466762 0)
(0.0964719292 -0.0009072372 0)
(0.0963569603 -0.00112178736 0)
(0.0966769939 -0.000914044333 0)
(0.096568036 -0.00113179952 0)
(0.0968810429 -0.000915251599 0)
(0.0967786464 -0.00113476194 0)
(0.0970828304 -0.000911032646 0)
(0.0969874238 -0.00113085383 0)
(0.0972811806 -0.00090164513 0)
(0.0971930674 -0.00112036702 0)
(0.0974750073 -0.000887420627 0)
(0.0973943672 -0.0011036937 0)
(0.0976633294 -0.000868752725 0)
(0.0975902239 -0.00108131133 0)
(0.0978452829 -0.000846083821 0)
(0.0977796636 -0.00105376559 0)
(0.0980201286 -0.000819891284 0)
(0.0979618486 -0.00102165227 0)
(0.0981872552 -0.00079067355 0)
(0.0981360822 -0.00098559896 0)
(0.0983461799 -0.000758936797 0)
(0.0983018099 -0.000946247426 0)
(0.0984965441 -0.000725182758 0)
(0.0984586164 -0.000904237288 0)
(0.0986381077 -0.000689897971 0)
(0.0986062192 -0.000860191624 0)
(0.0987707412 -0.000653544713 0)
(0.0987444596 -0.00081470474 0)
(0.0988944152 -0.000616553776 0)
(0.0988732918 -0.000768332342 0)
(0.0990091903 -0.000579318941 0)
(0.098992771 -0.000721584114 0)
(0.0991152053 -0.000542193205 0)
(0.0991030399 -0.000674918572 0)
(0.099212666 -0.000505486622 0)
(0.0992043164 -0.000628740048 0)
(0.0993018345 -0.000469465757 0)
(0.0992968807 -0.000583397564 0)
(0.0993830181 -0.000434354367 0)
(0.0993810631 -0.000539185357 0)
(0.0994565594 -0.000400334733 0)
(0.0994572329 -0.000496344641 0)
(0.0995228268 -0.000367549261 0)
(0.0995257879 -0.000455066252 0)
(0.0995822079 -0.000336102605 0)
(0.0995871459 -0.000415494033 0)
(0.0996351034 -0.000306065228 0)
(0.0996417372 -0.000377729036 0)
(0.099681922 -0.000277478303 0)
(0.0996899988 -0.000341834379 0)
(0.0997230743 -0.000250358099 0)
(0.0997323689 -0.000307840253 0)
(0.0997589682 -0.000224698715 0)
(0.0997692815 -0.000275748798 0)
(0.099790007 -0.000200474742 0)
(0.0998011629 -0.000245538865 0)
(0.0998165886 -0.000177646122 0)
(0.0998284287 -0.00021717076 0)
(0.0998391037 -0.000156164472 0)
(0.0998514832 -0.000190591221 0)
(0.0998579322 -0.000135977895 0)
(0.0998707171 -0.000165738878 0)
(0.0998734417 -0.000117034046 0)
(0.0998865046 -0.000142549414 0)
(0.0998859866 -9.92846972e-05 0)
(0.0998992012 -0.000120959616 0)
(0.099895906 -8.26927313e-05 0)
(0.0999091415 -0.000100910873 0)
(0.0999035164 -6.7239101e-05 0)
(0.0999166352 -8.23519849e-05 0)
(0.0999090975 -5.29269681e-05 0)
(0.09992196 -6.52386314e-05 0)
(0.0999128742 -3.97788673e-05 0)
(0.0999253552 -4.95304585e-05 0)
(0.0999150038 -2.78204163e-05 0)
(0.0999270217 -3.51898426e-05 0)
(0.0999155747 -1.70450382e-05 0)
(0.0999271208 -2.2169214e-05 0)
(0.0999146179 -7.35613401e-06 0)
(0.0999257722 -1.03823512e-05 0)
(0.0999121068 1.46794653e-06 0)
(0.099923051 3.46291268e-07 0)
(0.0999088224 9.49385268e-06 0)
(0.0999192047 9.84838084e-06 0)
(0.0999046694 1.66347251e-05 0)
(0.0999145225 1.85502862e-05 0)
(0.0998996496 2.29320694e-05 0)
(0.0999090467 2.62884804e-05 0)
(0.0998938164 2.84846174e-05 0)
(0.0999027941 3.31424221e-05 0)
(0.0998872578 3.3374707e-05 0)
(0.0998958571 3.91807502e-05 0)
(0.0998800697 3.76718042e-05 0)
(0.0998883259 4.4473724e-05 0)
(0.099872342 4.14376086e-05 0)
(0.0998802784 4.90961632e-05 0)
(0.0998641571 4.47259954e-05 0)
(0.0998717912 5.31165409e-05 0)
(0.099855591 4.75841505e-05 0)
(0.0998629371 5.65944266e-05 0)
(0.0998467132 5.00535355e-05 0)
(0.0998537829 5.95827572e-05 0)
(0.0998375869 5.21703623e-05 0)
(0.0998443894 6.21286623e-05 0)
(0.0998282687 5.3966073e-05 0)
(0.0998348117 6.42739208e-05 0)
(0.0998188087 5.54680337e-05 0)
(0.0998250989 6.60555227e-05 0)
(0.099809251 5.67003701e-05 0)
(0.0998152947 6.75063373e-05 0)
(0.0997996334 5.76848042e-05 0)
(0.0998054371 6.8655816e-05 0)
(0.0997899888 5.84413533e-05 0)
(0.0997955592 6.95306471e-05 0)
(0.0997803455 5.89888095e-05 0)
(0.0997856898 7.01552836e-05 0)
(0.0997707277 5.93449959e-05 0)
(0.0997758534 7.05523146e-05 0)
(0.0997611567 5.95268578e-05 0)
(0.0997660717 7.07427026e-05 0)
(0.0997516508 5.95504581e-05 0)
(0.0997563633 7.07459266e-05 0)
(0.0997422264 5.94309293e-05 0)
(0.0997467443 7.05800688e-05 0)
(0.0997328979 5.91824111e-05 0)
(0.0997372291 7.02618668e-05 0)
(0.0997236783 5.88179859e-05 0)
(0.0997278302 6.98067453e-05 0)
(0.0997145789 5.83496201e-05 0)
(0.0997185585 6.92288334e-05 0)
(0.09970561 5.77881224e-05 0)
(0.0997094237 6.85409773e-05 0)
(0.0996967807 5.71431283e-05 0)
(0.0997004343 6.77547596e-05 0)
(0.0996880987 5.64231243e-05 0)
(0.0996915976 6.68805367e-05 0)
(0.099679571 5.56355197e-05 0)
(0.0996829199 6.5927502e-05 0)
(0.0996712031 5.47867614e-05 0)
(0.0996744065 6.49037821e-05 0)
(0.0996629997 5.38824811e-05 0)
(0.0996660618 6.38165579e-05 0)
(0.0996549649 5.29276386e-05 0)
(0.0996578895 6.26722013e-05 0)
(0.099647102 5.19266146e-05 0)
(0.0996498925 6.1476345e-05 0)
(0.0996394139 5.0883296e-05 0)
(0.0996420733 6.02338644e-05 0)
(0.0996319031 4.98011646e-05 0)
(0.0996344341 5.89489496e-05 0)
(0.0996245717 4.86833618e-05 0)
(0.0996269764 5.76251661e-05 0)
(0.0996174222 4.75325412e-05 0)
(0.0996197028 5.62654967e-05 0)
(0.0996104573 4.63512034e-05 0)
(0.0996126118 5.48718851e-05 0)
(0.0996036807 4.51391607e-05 0)
(0.0996057172 5.34464694e-05 0)
(0.0995970985 4.39028718e-05 0)
(0.099598982 5.19840185e-05 0)
(0.0995907174 4.26098395e-05 0)
(0.0995925502 5.05016786e-05 0)
(0.0995845615 4.13767001e-05 0)
(0.0995859526 4.88998629e-05 0)
(0.0995786246 3.9638906e-05 0)
(0.0995809142 4.75410205e-05 0)
(0.0995719734 4.47446792e-05 0)
(0.100004438 -4.56223407e-05 0)
(0.100000993 -2.23957016e-05 0)
(0.100021757 -9.61579062e-05 0)
(0.100011164 -7.48951428e-05 0)
(0.100053229 -0.000146591427 0)
(0.100034838 -0.000131705016 0)
(0.100098483 -0.000187648617 0)
(0.100073738 -0.000184754508 0)
(0.100154549 -0.000209610315 0)
(0.100125613 -0.000222479919 0)
(0.10021611 -0.000206469532 0)
(0.10018555 -0.000235400014 0)
(0.100276727 -0.000177501195 0)
(0.100247541 -0.000219655021 0)
(0.100330171 -0.000126460294 0)
(0.100305399 -0.000177090793 0)
(0.100371552 -5.97513556e-05 0)
(0.100353517 -0.000113626345 0)
(0.100399318 1.51765767e-05 0)
(0.100388136 -3.75532091e-05 0)
(0.100408933 8.96884097e-05 0)
(0.100406927 4.34940097e-05 0)
(0.100403238 0.000155581373 0)
(0.100409609 0.000118808727 0)
(0.100384975 0.000207294583 0)
(0.100398315 0.000181431428 0)
(0.100357455 0.000241638544 0)
(0.100375913 0.000227132123 0)
(0.10032415 0.000257579084 0)
(0.100345756 0.000253857833 0)
(0.100288527 0.000255895111 0)
(0.100311403 0.00026152074 0)
(0.100253853 0.000238614805 0)
(0.100276279 0.000251608211 0)
(0.100223036 0.000208596727 0)
(0.100243485 0.000226640521 0)
(0.100198498 0.000169516811 0)
(0.100215702 0.000189892536 0)
(0.100181977 0.000126194753 0)
(0.100195049 0.000145637967 0)
(0.100174157 8.48428424e-05 0)
(0.100182833 9.96299794e-05 0)
(0.100174271 5.27273318e-05 0)
(0.100179163 5.91894124e-05 0)
(0.100179967 3.7108037e-05 0)
(0.100182616 3.23825975e-05 0)
(0.100187231 4.35388136e-05 0)
(0.100190031 2.63747311e-05 0)
(0.100191084 7.42022536e-05 0)
(0.100196723 4.56380084e-05 0)
(0.100186189 0.000127301896 0)
(0.100197283 9.07710741e-05 0)
(0.100167703 0.000197567109 0)
(0.100186518 0.00015814441 0)
(0.100132143 0.000277428578 0)
(0.100160264 0.000240696245 0)
(0.100077883 0.000358539527 0)
(0.100115985 0.000329517342 0)
(0.10000523 0.000433234522 0)
(0.100053031 0.000415616506 0)
(0.0999161472 0.000495550481 0)
(0.0999725379 0.000491358714 0)
(0.0998137633 0.000541683812 0)
(0.0998770456 0.000551299856 0)
(0.099701825 0.000569980881 0)
(0.0997699793 0.000592422807 0)
(0.099584224 0.000580660227 0)
(0.0996551449 0.000613948803 0)
(0.0994646451 0.0005754719 0)
(0.0995363231 0.000616957615 0)
(0.0993463235 0.000557436444 0)
(0.0994169826 0.000604025783 0)
(0.0992318513 0.000530700105 0)
(0.099300072 0.000578998767 0)
(0.0991229753 0.000500430668 0)
(0.09918783 0.000546882953 0)
(0.0990203692 0.000472601186 0)
(0.0990815672 0.000513722311 0)
(0.0989234267 0.000453505788 0)
(0.0989814253 0.000486268067 0)
(0.0988301645 0.000448942196 0)
(0.0988861845 0.000471298064 0)
(0.0987373366 0.000463157828 0)
(0.0987932342 0.000474585507 0)
(0.0986408181 0.000497822695 0)
(0.0986988131 0.000499702197 0)
(0.098536248 0.000551380345 0)
(0.098598547 0.00054699577 0)
(0.098419824 0.000619081554 0)
(0.0984882087 0.000613130492 0)
(0.0982890644 0.00069381721 0)
(0.0983645318 0.000691478186 0)
(0.0981433177 0.000767594432 0)
(0.0982258705 0.000773391252 0)
(0.0979838578 0.000833254583 0)
(0.0980725135 0.000850066272 0)
(0.0978135267 0.000885924125 0)
(0.0979065558 0.000914458388 0)
(0.0976360342 0.00092377064 0)
(0.0977313606 0.000962656764 0)
(0.0974551374 0.000947878749 0)
(0.0975507748 0.000994312208 0)
(0.0972739424 0.000961368216 0)
(0.0973683368 0.00101204905 0)
(0.0970945129 0.000968124689 0)
(0.0971867022 0.00102015291 0)
(0.0969178417 0.000971602933 0)
(0.0970074218 0.00102305332 0)
(0.0967441145 0.000974066721 0)
(0.0968310668 0.00102412509 0)
(0.0965731108 0.000976407074 0)
(0.096657583 0.0010251316 0)
(0.0964045756 0.000978441742 0)
(0.0964867005 0.00102633474 0)
(0.0962384516 0.000979447785 0)
(0.0963182502 0.00102704505 0)
(0.0960749413 0.000978663351 0)
(0.0961523116 0.00102628052 0)
(0.0959144433 0.000975589698 0)
(0.0959892039 0.00102325994 0)
(0.0957574354 0.000970059877 0)
(0.0958293842 0.0010176103 0)
(0.0956043722 0.000962145006 0)
(0.0956733298 0.00100932381 0)
(0.0954556292 0.000952006397 0)
(0.0955214567 0.00099858749 0)
(0.0953114955 0.000939778536 0)
(0.0953740902 0.000985611144 0)
(0.0951721938 0.000925517257 0)
(0.0952314754 0.000970526023 0)
(0.0950379079 0.000909203367 0)
(0.0950938049 0.00095336339 0)
(0.0949088028 0.000890772163 0)
(0.0949612439 0.000934082613 0)
(0.0947850345 0.000870142365 0)
(0.0948339452 0.000912610709 0)
(0.0946667533 0.000847231972 0)
(0.0947120555 0.00088886938 0)
(0.0945541047 0.00082196163 0)
(0.0945957165 0.000862784252 0)
(0.0944472324 0.000794252073 0)
(0.0944850667 0.000834282666 0)
(0.0943462825 0.000764021574 0)
(0.0943802454 0.000803288662 0)
(0.0942514099 0.000731186128 0)
(0.0942813981 0.000769720465 0)
(0.0941627848 0.00069566216 0)
(0.0941886831 0.000733491642 0)
(0.0940805995 0.000657369945 0)
(0.0941022778 0.000694514274 0)
(0.0940050756 0.000616235649 0)
(0.0940223846 0.000652701871 0)
(0.0939364716 0.000572189639 0)
(0.0939492368 0.000607969996 0)
(0.0938750884 0.000525154168 0)
(0.0938831021 0.000560233312 0)
(0.0938212559 0.000475019083 0)
(0.0938242794 0.000509397082 0)
(0.093775274 0.000421634704 0)
(0.0937730783 0.000455354867 0)
(0.0937373389 0.000364831816 0)
(0.0937297909 0.000398002449 0)
(0.0937075737 0.000304434348 0)
(0.0936946689 0.000337293922 0)
(0.0936861798 0.000240330364 0)
(0.0936679766 0.000273353 0)
(0.093673386 0.000172582659 0)
(0.0936500388 0.00020609549 0)
(0.0936696838 0.000101495165 0)
(0.0936412277 0.000135385297 0)
(0.093676073 2.75188117e-05 0)
(0.0936418866 6.12142862e-05 0)
(0.0936944631 -4.83423908e-05 0)
(0.0936526711 -1.59723001e-05 0)
(0.0937220885 -0.000125078556 0)
(0.0936739863 -9.38198493e-05 0)
(0.0937614914 -0.000202846744 0)
(0.093706315 -0.000173583939 0)
(0.093813048 -0.000282058586 0)
(0.0937507226 -0.000254869733 0)
(0.0938771291 -0.000362509594 0)
(0.0938077724 -0.000337777253 0)
(0.0939540501 -0.000443769156 0)
(0.0938776687 -0.000421901342 0)
(0.094043948 -0.000525393747 0)
(0.0939606479 -0.000506753708 0)
(0.0941468508 -0.000606850409 0)
(0.0940568868 -0.000591822487 0)
(0.0942626962 -0.000687496731 0)
(0.0941664224 -0.000676484472 0)
(0.0943913051 -0.000766617102 0)
(0.0942891729 -0.000760018383 0)
(0.094532363 -0.000843444082 0)
(0.094424932 -0.000841637215 0)
(0.0946854095 -0.000917172515 0)
(0.0945733435 -0.000920502414 0)
(0.0948498313 -0.00098698007 0)
(0.0947338882 -0.00099574052 0)
(0.0950248591 -0.00105205125 0)
(0.0949058791 -0.00106646697 0)
(0.0952095706 -0.00111160177 0)
(0.0950884603 -0.00113181253 0)
(0.0954028979 -0.00116490313 0)
(0.0952806104 -0.00119095101 0)
(0.0956036407 -0.00121130674 0)
(0.0954811528 -0.0012431277 0)
(0.0958104835 -0.00125026611 0)
(0.0956887722 -0.00128768656 0)
(0.0960220187 -0.00128135574 0)
(0.0959020367 -0.00132409434 0)
(0.0962367726 -0.00130428566 0)
(0.096119426 -0.00135195998 0)
(0.0964532361 -0.00131891094 0)
(0.0963393629 -0.00137104832 0)
(0.0966698965 -0.00132523526 0)
(0.0965602483 -0.00138128717 0)
(0.0968852699 -0.00132340879 0)
(0.0967804979 -0.00138276769 0)
(0.0970979327 -0.00131372041 0)
(0.0969985769 -0.00137573824 0)
(0.0973065493 -0.00129658491 0)
(0.0972130331 -0.00136059222 0)
(0.0975098965 -0.00127252632 0)
(0.0974225254 -0.00133785105 0)
(0.0977068821 -0.00124215817 0)
(0.0976258466 -0.00130814323 0)
(0.0978965587 -0.00120616216 0)
(0.097821941 -0.00127218103 0)
(0.0980781315 -0.00116526617 0)
(0.098009915 -0.00123073601 0)
(0.0982509609 -0.00112022287 0)
(0.098189042 -0.00118461467 0)
(0.098414561 -0.00107178954 0)
(0.098358762 -0.00113463541 0)
(0.0985685931 -0.00102071007 0)
(0.0985186759 -0.00108160759 0)
(0.0987128568 -0.000967699469 0)
(0.098668536 -0.00102631339 0)
(0.098847278 -0.000913431095 0)
(0.0988082338 -0.000969492797 0)
(0.098971896 -0.00085852685 0)
(0.0989377856 -0.000911831829 0)
(0.0990868489 -0.000803550147 0)
(0.099057317 -0.00085395407 0)
(0.0991923591 -0.000749001548 0)
(0.0991670463 -0.000796415147 0)
(0.099288719 -0.000695316683 0)
(0.0992672695 -0.000739699993 0)
(0.0993762776 -0.000642866257 0)
(0.0993583447 -0.000684222525 0)
(0.0994554272 -0.000591957626 0)
(0.099440678 -0.000630327382 0)
(0.099526593 -0.000542837595 0)
(0.099514711 -0.000578293158 0)
(0.0995902225 -0.000495696199 0)
(0.099580909 -0.000528336536 0)
(0.0996467766 -0.000450671291 0)
(0.0996397518 -0.000480616928 0)
(0.0996967221 -0.000407853896 0)
(0.0996917251 -0.000435241997 0)
(0.099740525 -0.00036729404 0)
(0.099737314 -0.000392274125 0)
(0.0997786462 -0.000329006715 0)
(0.0997769978 -0.000351737433 0)
(0.0998115378 -0.000292977733 0)
(0.0998112447 -0.000313623856 0)
(0.0998396387 -0.000259169242 0)
(0.0998405082 -0.000277897506 0)
(0.0998633717 -0.00022752509 0)
(0.0998652253 -0.000244499678 0)
(0.0998831409 -0.000197977189 0)
(0.0998858141 -0.000213355823 0)
(0.099899331 -0.000170452594 0)
(0.0999026707 -0.00018438199 0)
(0.099912304 -0.000144878604 0)
(0.0999161693 -0.000157487993 0)
(0.0999223957 -0.000121185043 0)
(0.099926662 -0.000132580385 0)
(0.0999299115 -9.93057936e-05 0)
(0.0999344787 -0.000109565442 0)
(0.0999351217 -7.9178946e-05 0)
(0.099939924 -8.83516192e-05 0)
(0.0999382623 -6.07419675e-05 0)
(0.0999432761 -6.885501e-05 0)
(0.0999395425 -4.3924824e-05 0)
(0.0999447831 -5.10045975e-05 0)
(0.0999391623 -2.86475724e-05 0)
(0.0999446578 -3.47521104e-05 0)
(0.0999373246 -1.48151751e-05 0)
(0.0999430799 -2.00530878e-05 0)
(0.0999342434 -2.29249645e-06 0)
(0.0999402154 -6.83427204e-06 0)
(0.0999301057 9.10991164e-06 0)
(0.0999361999 5.11087153e-06 0)
(0.0999249152 1.94487734e-05 0)
(0.0999311258 1.58254087e-05 0)
(0.0999189134 2.86682424e-05 0)
(0.0999251516 2.54613974e-05 0)
(0.099912192 3.68159959e-05 0)
(0.099918439 3.40282516e-05 0)
(0.0999048416 4.39940893e-05 0)
(0.0999110672 4.16065307e-05 0)
(0.0998969365 5.02931958e-05 0)
(0.0999031156 4.82835593e-05 0)
(0.099888546 5.57954174e-05 0)
(0.0998946648 5.41355999e-05 0)
(0.0998797393 6.05776737e-05 0)
(0.0998857863 5.92371377e-05 0)
(0.099870584 6.47096067e-05 0)
(0.0998765485 6.36590773e-05 0)
(0.0998611428 6.82538527e-05 0)
(0.0998670162 6.74661164e-05 0)
(0.0998514736 7.12669704e-05 0)
(0.0998572491 7.07169225e-05 0)
(0.0998416293 7.37999175e-05 0)
(0.0998473016 7.34645202e-05 0)
(0.0998316575 7.58984323e-05 0)
(0.0998372228 7.57565914e-05 0)
(0.0998216009 7.76035318e-05 0)
(0.0998270563 7.76359255e-05 0)
(0.0998114971 7.89520683e-05 0)
(0.0998168409 7.91409855e-05 0)
(0.0998013794 7.99772853e-05 0)
(0.0998066106 8.03064936e-05 0)
(0.0997912768 8.07093206e-05 0)
(0.0997963947 8.11639761e-05 0)
(0.0997812144 8.11756333e-05 0)
(0.0997862188 8.1742227e-05 0)
(0.0997712142 8.1401345e-05 0)
(0.099776105 8.206767e-05 0)
(0.0997612952 8.14095061e-05 0)
(0.0997660724 8.2164626e-05 0)
(0.0997514737 8.12213002e-05 0)
(0.0997561374 8.20555039e-05 0)
(0.099741764 8.08561984e-05 0)
(0.0997463145 8.17609352e-05 0)
(0.0997321784 8.03320746e-05 0)
(0.0997366159 8.12998713e-05 0)
(0.0997227274 7.96652918e-05 0)
(0.0997270525 8.06896564e-05 0)
(0.0997134203 7.88707709e-05 0)
(0.0997176336 7.99460871e-05 0)
(0.099704265 7.79620507e-05 0)
(0.0997083672 7.90834708e-05 0)
(0.0996952682 7.69513496e-05 0)
(0.0996992603 7.81146875e-05 0)
(0.0996864358 7.58496349e-05 0)
(0.0996903187 7.70512612e-05 0)
(0.0996777724 7.46667079e-05 0)
(0.0996815475 7.59034488e-05 0)
(0.0996692823 7.34112988e-05 0)
(0.0996729507 7.468034e-05 0)
(0.0996609685 7.20911684e-05 0)
(0.0996645316 7.33899677e-05 0)
(0.0996528338 7.07131831e-05 0)
(0.0996562927 7.20394139e-05 0)
(0.0996448804 6.92833285e-05 0)
(0.0996482361 7.06348842e-05 0)
(0.0996371098 6.78067228e-05 0)
(0.0996403633 6.91817435e-05 0)
(0.0996295237 6.62876527e-05 0)
(0.0996326754 6.76845645e-05 0)
(0.099622123 6.47296158e-05 0)
(0.099625173 6.61471354e-05 0)
(0.099614909 6.31350738e-05 0)
(0.0996178577 6.457253e-05 0)
(0.0996078829 6.15060135e-05 0)
(0.0996107267 6.29625446e-05 0)
(0.0996010457 5.98402591e-05 0)
(0.0996037923 6.13196085e-05 0)
(0.0995943993 5.8145481e-05 0)
(0.0995970144 5.96374654e-05 0)
(0.099587939 5.63758044e-05 0)
(0.0995905365 5.79408044e-05 0)
(0.0995816704 5.46952845e-05 0)
(0.0995838759 5.61182067e-05 0)
(0.0995755099 5.2372494e-05 0)
(0.0995787843 5.46349802e-05 0)
(0.0995697037 5.16052583e-05 0)
(0.100005849 -5.43610461e-05 0)
(0.100001065 -2.9131373e-05 0)
(0.10002418 -0.00011483143 0)
(0.100011618 -9.60026353e-05 0)
(0.100056207 -0.000175625938 0)
(0.100035754 -0.000168585397 0)
(0.100101348 -0.000226199251 0)
(0.100075207 -0.000236734399 0)
(0.100156607 -0.000255223027 0)
(0.100127917 -0.000286111801 0)
(0.100216961 -0.000255421503 0)
(0.100189087 -0.000304898919 0)
(0.100276393 -0.000225538185 0)
(0.100252655 -0.000288091551 0)
(0.100329012 -0.000169593964 0)
(0.100312295 -0.000237682645 0)
(0.100369986 -9.52358312e-05 0)
(0.100362178 -0.000160807686 0)
(0.100396153 -1.24206342e-05 0)
(0.100397824 -6.76849313e-05 0)
(0.10040768 6.92544674e-05 0)
(0.100417345 3.0219776e-05 0)
(0.100404883 0.000142115624 0)
(0.100421096 0.000122029772 0)
(0.100389505 0.000200063994 0)
(0.100410449 0.000199139329 0)
(0.100364502 0.000239272347 0)
(0.100387992 0.000255923559 0)
(0.10033335 0.00025843088 0)
(0.100357295 0.000289729475 0)
(0.100299546 0.000258242498 0)
(0.100322137 0.000300446905 0)
(0.100266343 0.000240787754 0)
(0.100286156 0.000289841869 0)
(0.100236618 0.000209082421 0)
(0.100252674 0.000260869658 0)
(0.100212747 0.000167074193 0)
(0.100224559 0.000217379926 0)
(0.100196427 0.000120027383 0)
(0.100204065 0.000164430841 0)
(0.10018839 7.48272087e-05 0)
(0.100192561 0.000108884164 0)
(0.100188073 3.96163732e-05 0)
(0.100190143 5.95549576e-05 0)
(0.100193289 2.24955231e-05 0)
(0.10019527 2.63757445e-05 0)
(0.100200121 2.97287263e-05 0)
(0.100204663 1.8507874e-05 0)
(0.100203507 6.42379237e-05 0)
(0.100213704 4.17391314e-05 0)
(0.100198225 0.000124670643 0)
(0.100216943 9.68539799e-05 0)
(0.100179719 0.000205467162 0)
(0.100208886 0.000179454314 0)
(0.100144764 0.000298139171 0)
(0.10018508 0.000280947078 0)
(0.100091805 0.000393091024 0)
(0.100142794 0.000390500508 0)
(0.100021024 0.000481340051 0)
(0.100081249 0.000497122094 0)
(0.099934133 0.000555756211 0)
(0.100001517 0.000591414748 0)
(0.0998339678 0.000611673145 0)
(0.0999061437 0.000666641569 0)
(0.0997240106 0.000646942338 0)
(0.099798627 0.000719040242 0)
(0.0996079553 0.000661637771 0)
(0.0996829075 0.000747588243 0)
(0.0994893654 0.000657651777 0)
(0.0995629459 0.000753515606 0)
(0.0993714222 0.000638367944 0)
(0.0994424112 0.000739839236 0)
(0.0992567205 0.000608478253 0)
(0.099324445 0.000711079444 0)
(0.0991470635 0.000573870387 0)
(0.0992114437 0.000673154652 0)
(0.0990432295 0.000541405547 0)
(0.0991048178 0.00063328882 0)
(0.0989447454 0.000518395802 0)
(0.099004742 0.00059967393 0)
(0.0988497634 0.000511690352 0)
(0.0989099659 0.000580671328 0)
(0.0987551586 0.000526459801 0)
(0.0988177912 0.000583524427 0)
(0.0986569219 0.000564963497 0)
(0.0987243172 0.000612823148 0)
(0.0985508151 0.000625708509 0)
(0.098624989 0.000669179362 0)
(0.0984331493 0.000703378637 0)
(0.0985153769 0.000748624465 0)
(0.0983014967 0.000789710473 0)
(0.0983920179 0.000843078188 0)
(0.0981551526 0.000875182701 0)
(0.0982531031 0.000941908696 0)
(0.0979952264 0.000951079645 0)
(0.0980988171 0.00103422377 0)
(0.0978243332 0.0010113193 0)
(0.0979312261 0.00111124451 0)
(0.097645972 0.00105348806 0)
(0.0977537438 0.00116804237 0)
(0.0974637708 0.00107879634 0)
(0.097570336 0.00120411969 0)
(0.097280818 0.0010910557 0)
(0.0973847036 0.001222722 0)
(0.0970992579 0.00109511525 0)
(0.0971996766 0.00122922205 0)
(0.0969202218 0.00109533972 0)
(0.0970169597 0.00122921618 0)
(0.0967440427 0.00109461268 0)
(0.0968372367 0.00122699796 0)
(0.0965706188 0.00109407226 0)
(0.096660516 0.00122483182 0)
(0.0963997669 0.00109347421 0)
(0.0964865469 0.00122307335 0)
(0.0962314551 0.00109187126 0)
(0.0963151494 0.00122085861 0)
(0.09606588 0.0010882655 0)
(0.096146379 0.00121694285 0)
(0.0959034193 0.00108200778 0)
(0.0959805295 0.00121033589 0)
(0.0957445295 0.00107289285 0)
(0.0958180381 0.00120057423 0)
(0.0955896494 0.00106103861 0)
(0.0956593679 0.00118767061 0)
(0.0954391444 0.00104669048 0)
(0.0955049242 0.00117189633 0)
(0.0952932958 0.00103006434 0)
(0.0953550211 0.00115355805 0)
(0.0951523181 0.00101127519 0)
(0.0952098909 0.00113286392 0)
(0.0950163848 0.000990339941 0)
(0.0950697102 0.00110989268 0)
(0.0948856483 0.000967215648 0)
(0.0949346261 0.00108462774 0)
(0.0947602512 0.000941837361 0)
(0.0948047729 0.00105700738 0)
(0.0946403307 0.000914138652 0)
(0.0946802789 0.00102695961 0)
(0.0945260206 0.00088405517 0)
(0.0945612691 0.000994414045 0)
(0.0944174542 0.000851519915 0)
(0.0944478677 0.000959298564 0)
(0.094314769 0.000816458266 0)
(0.0943402021 0.000921532245 0)
(0.0942181128 0.000778786594 0)
(0.0942384088 0.000881021485 0)
(0.0941276501 0.00073841429 0)
(0.0941426398 0.000837660913 0)
(0.0940435671 0.000695247019 0)
(0.0940530689 0.00079133711 0)
(0.0939660773 0.000649189094 0)
(0.0939698961 0.000741932535 0)
(0.0938954242 0.000600143627 0)
(0.0938933515 0.000689328092 0)
(0.0938318811 0.000548009745 0)
(0.0938236967 0.000633404145 0)
(0.0937757433 0.000492680727 0)
(0.0937612217 0.000574040642 0)