/*--------------------------------*- C++ -*----------------------------------*\
| =========                 |                                                 |
| \\      /  F ield         | OpenFOAM: The Open Source CFD Toolbox           |
|  \\    /   O peration     | Version:  v2012                                 |
|   \\  /    A nd           | Website:  www.openfoam.com                      |
|    \\/     M anipulation  |                                                 |
\*---------------------------------------------------------------------------*/
FoamFile
{
    version     2.0;
    format      ascii;
    class       volVectorField;
    location    "2.39";
    object      HbyA;
}
// * * * * * * * * * * * * * * * * * * * * * * * * * * * * * * * * * * * * * //

dimensions      [0 1 -1 0 0 0 0];


internalField   nonuniform List<vector> 
28416
(
(0.0999980957 1.3560122e-05 0)
(0.0999815217 4.4765735e-05 0)
(0.0999477502 7.79293627e-05 0)
(0.0998978044 0.000109242739 0)
(0.0998350409 0.000135218153 0)
(0.0997629754 0.000153168572 0)
(0.0996850442 0.000161446427 0)
(0.0996048538 0.000159779347 0)
(0.0995259622 0.000149127761 0)
(0.0994515238 0.00013099383 0)
(0.0993842306 0.000106916163 0)
(0.0993264126 7.87023922e-05 0)
(0.0992799739 4.90938002e-05 0)
(0.0992460776 2.20212568e-05 0)
(0.0992248193 1.89122951e-06 0)
(0.0992124707 -8.08832901e-06 0)
(0.0992032461 -5.45316445e-06 0)
(0.099192421 1.06270608e-05 0)
(0.0991753148 3.85997076e-05 0)
(0.0991475383 7.50101411e-05 0)
(0.0991071363 0.000115867714 0)
(0.0990555012 0.000156420784 0)
(0.0989949793 0.000191945457 0)
(0.0989279491 0.00021885806 0)
(0.0988572113 0.000234992508 0)
(0.0987859051 0.000239459275 0)
(0.0987170574 0.000232535204 0)
(0.0986533564 0.000215564303 0)
(0.0985971021 0.000190825423 0)
(0.0985501012 0.000161413175 0)
(0.0985134654 0.000131126578 0)
(0.0984873741 0.000104273603 0)
(0.098470882 8.52853618e-05 0)
(0.0984619465 7.81024402e-05 0)
(0.0984574036 8.53529127e-05 0)
(0.0984533514 0.000107805148 0)
(0.0984460323 0.000143943425 0)
(0.0984324681 0.000190057136 0)
(0.0984109124 0.000240962149 0)
(0.0983810849 0.000291144453 0)
(0.0983440647 0.000335981678 0)
(0.0983018599 0.000372675439 0)
(0.0982567937 0.000400611995 0)
(0.0982109023 0.000421072975 0)
(0.0981655252 0.000436456013 0)
(0.0981211767 0.000449331099 0)
(0.0980776803 0.000461678033 0)
(0.0980344559 0.000474523524 0)
(0.0979908267 0.000487997836 0)
(0.0979462373 0.000501663356 0)
(0.0979003416 0.000514902657 0)
(0.0978529822 0.000527197929 0)
(0.0978041173 0.000538237666 0)
(0.097753748 0.000547883485 0)
(0.0977018781 0.000556076495 0)
(0.0976485081 0.000562754486 0)
(0.09759365 0.000567813486 0)
(0.0975373458 0.000571110402 0)
(0.0974796806 0.000572485484 0)
(0.0974207868 0.000571784501 0)
(0.0973608434 0.000568871175 0)
(0.097300072 0.000563630257 0)
(0.0972387349 0.000555965978 0)
(0.0971771316 0.000545800063 0)
(0.0971155967 0.000533071092 0)
(0.097054497 0.000517735152 0)
(0.0969942266 0.000499767126 0)
(0.0969352031 0.000479162285 0)
(0.0968778629 0.000455938124 0)
(0.0968226573 0.000430136358 0)
(0.0967700508 0.000401824743 0)
(0.0967205195 0.000371098101 0)
(0.0966745516 0.000338077748 0)
(0.0966326481 0.000302909328 0)
(0.0965953231 0.000265756844 0)
(0.0965631079 0.000226796319 0)
(0.0965365526 0.000186195066 0)
(0.096516183 0.000144090177 0)
(0.0965024379 0.000100610458 0)
(0.096495536 5.59126046e-05 0)
(0.0964953704 1.03856653e-05 0)
(0.0965029527 -3.50607957e-05 0)
(0.0965194833 -8.08340594e-05 0)
(0.0965448385 -0.0001269973 0)
(0.0965789154 -0.000173273306 0)
(0.0966218479 -0.000219370798 0)
(0.0966736811 -0.000265007678 0)
(0.0967343338 -0.000309877005 0)
(0.0968036524 -0.000353655147 0)
(0.0968814028 -0.000396009702 0)
(0.0969672544 -0.00043659814 0)
(0.0970607858 -0.000475070035 0)
(0.0971614936 -0.000511075166 0)
(0.0972687997 -0.000544275062 0)
(0.0973820586 -0.000574356321 0)
(0.0975005662 -0.000601043624 0)
(0.0976235673 -0.000624110242 0)
(0.097750264 -0.000643384857 0)
(0.0978798263 -0.000658754739 0)
(0.0980114028 -0.000670166136 0)
(0.098144135 -0.0006776229 0)
(0.0982771707 -0.000681184034 0)
(0.0984096782 -0.000680960457 0)
(0.0985408593 -0.000677110953 0)
(0.0986699611 -0.000669837222 0)
(0.0987962857 -0.000659378011 0)
(0.0989191979 -0.000646002489 0)
(0.0990381311 -0.000630003106 0)
(0.099152591 -0.000611688261 0)
(0.0992621574 -0.000591375087 0)
(0.0993664844 -0.000569382627 0)
(0.0994652985 -0.000546025632 0)
(0.0995583956 -0.000521609073 0)
(0.0996456352 -0.000496423337 0)
(0.0997269338 -0.000470739514 0)
(0.0998022519 -0.000444804606 0)
(0.0998715902 -0.00041883111 0)
(0.099935031 -0.00039299187 0)
(0.099992745 -0.000367443598 0)
(0.100044938 -0.000342333046 0)
(0.100091829 -0.00031779122 0)
(0.100133646 -0.00029393016 0)
(0.100170629 -0.000270842448 0)
(0.100203022 -0.000248600376 0)
(0.100231071 -0.000227251324 0)
(0.100255032 -0.000206820748 0)
(0.10027517 -0.000187320929 0)
(0.100291755 -0.000168755262 0)
(0.100305051 -0.000151119707 0)
(0.100315321 -0.000134403875 0)
(0.100322818 -0.000118592066 0)
(0.100327785 -0.000103663571 0)
(0.100330453 -8.95904162e-05 0)
(0.100331039 -7.63347084e-05 0)
(0.100329753 -6.38472198e-05 0)
(0.100326804 -5.20685051e-05 0)
(0.100322421 -4.09374924e-05 0)
(0.100316866 -3.04151017e-05 0)
(0.100310447 -2.05240288e-05 0)
(0.100303506 -1.14521947e-05 0)
(0.100296189 -3.46849635e-06 0)
(0.100288253 3.32640992e-06 0)
(0.100279309 9.08293115e-06 0)
(0.100269229 1.40747168e-05 0)
(0.100258208 1.84964139e-05 0)
(0.100246499 2.24392044e-05 0)
(0.100234258 2.59599158e-05 0)
(0.100221582 2.91118725e-05 0)
(0.10020857 3.19405487e-05 0)
(0.100195313 3.44804868e-05 0)
(0.100181894 3.67573871e-05 0)
(0.100168385 3.87891544e-05 0)
(0.100154849 4.05871356e-05 0)
(0.10014134 4.21590665e-05 0)
(0.100127897 4.35120021e-05 0)
(0.100114554 4.46539981e-05 0)
(0.100101336 4.55947999e-05 0)
(0.100088265 4.6345956e-05 0)
(0.10007536 4.69205257e-05 0)
(0.100062638 4.73325349e-05 0)
(0.100050113 4.75963588e-05 0)
(0.1000378 4.77261555e-05 0)
(0.100025712 4.77353889e-05 0)
(0.100013863 4.76364551e-05 0)
(0.100002263 4.74404379e-05 0)
(0.0999909235 4.71570087e-05 0)
(0.0999798544 4.67944556e-05 0)
(0.0999690637 4.63598033e-05 0)
(0.099958558 4.58589984e-05 0)
(0.099948343 4.52971345e-05 0)
(0.0999384229 4.46786913e-05 0)
(0.0999288006 4.40077604e-05 0)
(0.0999194781 4.32882328e-05 0)
(0.0999104567 4.2523933e-05 0)
(0.099901737 4.17186958e-05 0)
(0.0998933191 4.08763855e-05 0)
(0.0998852031 4.0000869e-05 0)
(0.0998773888 3.90959555e-05 0)
(0.0998698763 3.81653141e-05 0)
(0.0998626656 3.72123878e-05 0)
(0.0998557571 3.62403207e-05 0)
(0.0998491513 3.52518976e-05 0)
(0.0998428496 3.42495353e-05 0)
(0.0998368512 3.32350855e-05 0)
(0.0998311652 3.22104248e-05 0)
(0.09982577 3.1174196e-05 0)
(0.0998207568 3.01354283e-05 0)
(0.0998158415 2.90472395e-05 0)
(0.0998121135 2.81059471e-05 0)
(0.0998061565 2.63377141e-05 0)
(0.099998839 2.79274274e-05 0)
(0.0999859317 9.07734485e-05 0)
(0.0999557574 0.000155308325 0)
(0.0999074856 0.000214910453 0)
(0.0998441948 0.000263974187 0)
(0.0997698217 0.000298221027 0)
(0.0996882913 0.000315133135 0)
(0.0996037114 0.000314472282 0)
(0.0995202128 0.000297938841 0)
(0.0994415633 0.00026797901 0)
(0.0993710547 0.000226974492 0)
(0.0993115546 0.000177686909 0)
(0.099265288 0.000124429476 0)
(0.0992331921 7.36547575e-05 0)
(0.0992140484 3.31128931e-05 0)
(0.0992039715 9.76278838e-06 0)
(0.0991986832 9.42202493e-06 0)
(0.099193818 3.32368651e-05 0)
(0.0991838237 7.75925183e-05 0)
(0.0991636189 0.000135701117 0)
(0.0991298325 0.000200017059 0)
(0.099081625 0.0002625708 0)
(0.0990205808 0.00031608749 0)
(0.0989497694 0.00035528967 0)
(0.098873003 0.000377221935 0)
(0.0987944186 0.000380931758 0)
(0.0987180807 0.000367100139 0)
(0.0986476727 0.000337768761 0)
(0.0985863384 0.000296173832 0)
(0.0985365502 0.000246711892 0)
(0.0984999041 0.000194951456 0)
(0.098476847 0.000147474581 0)
(0.0984664159 0.000111326548 0)
(0.0984661133 9.29922085e-05 0)
(0.0984720089 9.69855286e-05 0)
(0.0984791779 0.000124741161 0)
(0.098482501 0.000173892261 0)
(0.0984776213 0.000238478751 0)
(0.0984617796 0.000310168799 0)
(0.0984342793 0.00038015397 0)
(0.0983964452 0.000441158537 0)
(0.098351086 0.000488945002 0)
(0.0983016232 0.000522857564 0)
(0.0982511714 0.00054529447 0)
(0.0982018565 0.000560389536 0)
(0.0981545498 0.000572447117 0)
(0.0981090251 0.000584699397 0)
(0.0980643887 0.000598740955 0)
(0.0980195688 0.000614664181 0)
(0.0979736795 0.000631640159 0)
(0.0979261772 0.000648583841 0)
(0.0978768344 0.000664621439 0)
(0.0978256176 0.000679257127 0)
(0.0977725621 0.000692301389 0)
(0.0977176978 0.000703700428 0)
(0.0976610331 0.000713389276 0)
(0.0976025773 0.000721224628 0)
(0.0975423701 0.000726989827 0)
(0.0974805025 0.00073043399 0)
(0.0974171234 0.000731310149 0)
(0.097352437 0.000729396245 0)
(0.0972866963 0.000724499983 0)
(0.0972201976 0.000716456095 0)
(0.097153277 0.000705123352 0)
(0.097086307 0.000690384313 0)
(0.0970196938 0.000672147277 0)
(0.096953873 0.000650348777 0)
(0.0968893059 0.000624955384 0)
(0.096826475 0.000595964432 0)
(0.0967658807 0.000563403781 0)
(0.0967080372 0.000527330903 0)
(0.0966534704 0.000487831534 0)
(0.0966027145 0.000445017831 0)
(0.0965563088 0.00039902625 0)
(0.0965147946 0.000350014204 0)
(0.0964787043 0.000298156604 0)
(0.0964485449 0.000243636318 0)
(0.0964248005 0.00018663641 0)
(0.096407938 0.000127368369 0)
(0.0963985127 6.61340752e-05 0)
(0.0963973934 3.36631199e-06 0)
(0.0964047762 -6.04355559e-05 0)
(0.0964207044 -0.000125030057 0)
(0.0964457565 -0.000190233084 0)
(0.0964801691 -0.000255652977 0)
(0.0965240493 -0.000320874488 0)
(0.0965774542 -0.000385473055 0)
(0.0966403512 -0.000448982438 0)
(0.0967126114 -0.000510904862 0)
(0.0967940085 -0.000570727018 0)
(0.0968842122 -0.000627928235 0)
(0.0969827891 -0.000681990766 0)
(0.0970892081 -0.000732412982 0)
(0.0972028453 -0.000778722499 0)
(0.0973229924 -0.00082048875 0)
(0.0974488646 -0.000857334799 0)
(0.097579612 -0.000888947837 0)
(0.0977143308 -0.000915087839 0)
(0.0978520783 -0.000935594 0)
(0.0979918878 -0.000950388676 0)
(0.0981327864 -0.000959478597 0)
(0.0982738119 -0.000962953314 0)
(0.0984140297 -0.000960981052 0)
(0.0985525486 -0.000953802311 0)
(0.098688534 -0.000941721595 0)
(0.0988212193 -0.000925097767 0)
(0.0989499153 -0.000904333468 0)
(0.0990740153 -0.000879864079 0)
(0.0991929999 -0.000852146644 0)
(0.0993064376 -0.00082164914 0)
(0.0994139838 -0.000788840424 0)
(0.0995153785 -0.000754181097 0)
(0.0996104411 -0.000718115387 0)
(0.0996990647 -0.000681063951 0)
(0.0997812095 -0.000643416992 0)
(0.0998568966 -0.000605527626 0)
(0.0999262046 -0.000567700322 0)
(0.0999892726 -0.000530187011 0)
(0.100046294 -0.000493215298 0)
(0.100097498 -0.000456995265 0)
(0.100143136 -0.000421711719 0)
(0.100183477 -0.000387520106 0)
(0.100218802 -0.000354546254 0)
(0.100249403 -0.000322886268 0)
(0.100275576 -0.00029260458 0)
(0.100297616 -0.000263737687 0)
(0.100315813 -0.000236302049 0)
(0.100330452 -0.000210299018 0)
(0.100341814 -0.000185717331 0)
(0.100350173 -0.000162534899 0)
(0.100355793 -0.000140720452 0)
(0.100358932 -0.000120235253 0)
(0.100359842 -0.00010103584 0)
(0.100358764 -8.30743951e-05 0)
(0.100355932 -6.62984107e-05 0)
(0.100351571 -5.06536916e-05 0)
(0.100345882 -3.60925711e-05 0)
(0.10033903 -2.25887695e-05 0)
(0.100331062 -1.01652048e-05 0)
(0.100322036 1.2128393e-06 0)
(0.1003122 1.13900457e-05 0)
(0.100301793 2.0235519e-05 0)
(0.10029086 2.78204792e-05 0)
(0.100279322 3.43858447e-05 0)
(0.100267166 4.01470732e-05 0)
(0.100254486 4.5219496e-05 0)
(0.100241395 4.96724869e-05 0)
(0.100227977 5.35700899e-05 0)
(0.100214309 5.69697919e-05 0)
(0.100200461 5.99198866e-05 0)
(0.100186499 6.24630348e-05 0)
(0.100172479 6.4636912e-05 0)
(0.100158453 6.64733521e-05 0)
(0.10014447 6.79992335e-05 0)
(0.100130568 6.92380223e-05 0)
(0.100116785 7.0210721e-05 0)
(0.100103148 7.09364631e-05 0)
(0.100089684 7.14331188e-05 0)
(0.100076415 7.17178325e-05 0)
(0.100063357 7.18073003e-05 0)
(0.100050528 7.17177744e-05 0)
(0.10003794 7.1464933e-05 0)
(0.100025604 7.10637332e-05 0)
(0.100013532 7.05282679e-05 0)
(0.100001731 6.98716364e-05 0)
(0.0999902111 6.91058546e-05 0)
(0.0999789777 6.82418252e-05 0)
(0.0999680371 6.72893635e-05 0)
(0.0999573942 6.62572659e-05 0)
(0.099947053 6.51534072e-05 0)
(0.0999370166 6.39848541e-05 0)
(0.0999272871 6.27579824e-05 0)
(0.0999178662 6.14785894e-05 0)
(0.0999087547 6.01519893e-05 0)
(0.0998999532 5.87830907e-05 0)
(0.0998914616 5.73764503e-05 0)
(0.0998832799 5.59363026e-05 0)
(0.0998754076 5.44665716e-05 0)
(0.0998678444 5.29708658e-05 0)
(0.0998605898 5.14524581e-05 0)
(0.0998536435 4.99142554e-05 0)
(0.0998470053 4.83587472e-05 0)
(0.0998406756 4.67879855e-05 0)
(0.0998346527 4.52032997e-05 0)
(0.0998289444 4.36059841e-05 0)
(0.0998235261 4.1993031e-05 0)
(0.0998184882 4.03753971e-05 0)
(0.0998135256 3.86874795e-05 0)
(0.0998097523 3.72142774e-05 0)
(0.0998035385 3.45523541e-05 0)
(0.0999984729 3.36218739e-05 0)
(0.099983938 0.000109207749 0)
(0.09995246 0.000186010223 0)
(0.0999038072 0.000256625081 0)
(0.0998408734 0.000314967543 0)
(0.0997672781 0.000356157476 0)
(0.0996867167 0.000377214597 0)
(0.0996031055 0.000377783907 0)
(0.0995204036 0.000359722681 0)
(0.0994422249 0.00032568812 0)
(0.0993716945 0.00027821032 0)
(0.0993114798 0.000220246909 0)
(0.0992636551 0.000156619939 0)
(0.0992292985 9.48497569e-05 0)
(0.0992080394 4.43951236e-05 0)
(0.0991974707 1.4484365e-05 0)
(0.0991926044 1.16222244e-05 0)
(0.0991869755 3.70230423e-05 0)
(0.099174819 8.70918541e-05 0)
(0.0991522164 0.000154167783 0)
(0.099117065 0.000228449818 0)
(0.0990689851 0.00030027113 0)
(0.0990092848 0.000361405572 0)
(0.0989405081 0.000405834211 0)
(0.0988660044 0.000430083729 0)
(0.0987895547 0.000433055234 0)
(0.0987149868 0.000415589182 0)
(0.0986458669 0.000380054671 0)
(0.0985853059 0.000330110835 0)
(0.0985357947 0.00027067009 0)
(0.0984989863 0.000207946418 0)
(0.0984754217 0.000149329141 0)
(0.0984642686 0.000102808153 0)
(0.0984631778 7.5843201e-05 0)
(0.098468374 7.38600892e-05 0)
(0.0984751128 9.88592817e-05 0)
(0.0984784937 0.000148574444 0)
(0.0984743503 0.000216547209 0)
(0.0984599702 0.000293343519 0)
(0.0984345184 0.000368683356 0)
(0.0983990424 0.000433848626 0)
(0.0983560237 0.000483597006 0)
(0.0983086038 0.000516967654 0)
(0.0982597318 0.000536767634 0)
(0.0982115029 0.000548025414 0)
(0.0981648654 0.000556067353 0)
(0.0981197229 0.000564942305 0)
(0.0980753065 0.000576671397 0)
(0.0980306246 0.000591383276 0)
(0.097984815 0.00060803039 0)
(0.0979373123 0.000625231821 0)
(0.0978878439 0.000641876499 0)
(0.0978363303 0.000657344734 0)
(0.097782772 0.000671420062 0)
(0.0977271791 0.000684068187 0)
(0.0976695524 0.000695242992 0)
(0.0976099002 0.000704795204 0)
(0.0975482652 0.000712476114 0)
(0.0974847439 0.000717987482 0)
(0.0974194936 0.000721031307 0)
(0.0973527303 0.000721337471 0)
(0.097284723 0.000718670103 0)
(0.097215788 0.000712823669 0)
(0.097146285 0.000703618548 0)
(0.097076613 0.000690900065 0)
(0.0970072063 0.000674540435 0)
(0.0969385296 0.00065444151 0)
(0.0968710727 0.000630536937 0)
(0.0968053451 0.000602793417 0)
(0.0967418712 0.000571211271 0)
(0.0966811862 0.00053582456 0)
(0.0966238344 0.000496700599 0)
(0.0965703666 0.00045393861 0)
(0.0965213397 0.000407667342 0)
(0.0964773136 0.000358042876 0)
(0.0964388493 0.000305245396 0)
(0.0964065068 0.000249483991 0)
(0.0963808474 0.000191005002 0)
(0.0963624416 0.000130090312 0)
(0.0963517239 6.70481332e-05 0)
(0.0963487352 2.14280311e-06 0)
(0.0963542175 -6.4475605e-05 0)
(0.0963690292 -0.000132379456 0)
(0.0963932715 -0.000201206186 0)
(0.0964271539 -0.000270577637 0)
(0.096470873 -0.000340040766 0)
(0.0965245385 -0.000409098721 0)
(0.0965881494 -0.000477219081 0)
(0.0966616018 -0.000543837846 0)
(0.0967446888 -0.000608368706 0)
(0.096837092 -0.000670212056 0)
(0.0969383795 -0.00072876574 0)
(0.0970480083 -0.000783439216 0)
(0.0971653282 -0.000833669891 0)
(0.097289588 -0.000878940383 0)
(0.0974199458 -0.000918795322 0)
(0.0975554811 -0.000952856157 0)
(0.0976952105 -0.000980832762 0)
(0.0978381054 -0.00100253123 0)
(0.0979831112 -0.00101785791 0)
(0.0981291676 -0.00102681991 0)
(0.0982752287 -0.00102952244 0)
(0.0984202822 -0.00102616332 0)
(0.0985633672 -0.00101702497 0)
(0.098703589 -0.00100246425 0)
(0.0988401321 -0.000982900605 0)
(0.0989722699 -0.000958803079 0)
(0.0990993707 -0.000930676756 0)
(0.0992209013 -0.000899049274 0)
(0.099336428 -0.000864457862 0)
(0.0994456142 -0.000827437333 0)
(0.0995482167 -0.000788509332 0)
(0.0996440797 -0.000748172992 0)
(0.0997331278 -0.000706896986 0)
(0.0998153587 -0.000665112935 0)
(0.0998908349 -0.000623210304 0)
(0.0999596772 -0.000581532948 0)
(0.10002206 -0.000540379547 0)
(0.100078205 -0.000500010058 0)
(0.10012837 -0.000460648774 0)
(0.100172839 -0.000422483883 0)
(0.10021191 -0.000385667932 0)
(0.100245894 -0.000350319842 0)
(0.100275104 -0.00031652773 0)
(0.100299858 -0.000284353722 0)
(0.100320466 -0.000253836159 0)
(0.100337235 -0.000224990253 0)
(0.100350467 -0.000197811178 0)
(0.100360454 -0.00017227789 0)
(0.10036748 -0.000148356557 0)
(0.100371819 -0.000126003774 0)
(0.100373727 -0.000105170101 0)
(0.100373446 -8.58052199e-05 0)
(0.100371204 -6.78613372e-05 0)
(0.100367217 -5.12949559e-05 0)
(0.100361689 -3.60681812e-05 0)
(0.100354818 -2.213914e-05 0)
(0.100346782 -9.44509626e-06 0)
(0.100337899 2.11617591e-06 0)
(0.10032836 1.26437254e-05 0)
(0.100318118 2.22219533e-05 0)
(0.100307189 3.08581634e-05 0)
(0.100295614 3.85241379e-05 0)
(0.100283428 4.52530797e-05 0)
(0.100270684 5.11446756e-05 0)
(0.100257466 5.62978852e-05 0)
(0.100243869 6.07887129e-05 0)
(0.100229979 6.46841567e-05 0)
(0.100215874 6.80456082e-05 0)
(0.100201629 7.09252477e-05 0)
(0.100187315 7.33663207e-05 0)
(0.100172992 7.54054374e-05 0)
(0.10015871 7.70744558e-05 0)
(0.100144513 7.84020096e-05 0)
(0.100130433 7.94147831e-05 0)
(0.100116498 8.01382648e-05 0)
(0.100102732 8.05969263e-05 0)
(0.100089153 8.08140967e-05 0)
(0.100075779 8.08118102e-05 0)
(0.100062625 8.06107316e-05 0)
(0.100049706 8.02301286e-05 0)
(0.100037034 7.96878457e-05 0)
(0.100024621 7.90002693e-05 0)
(0.100012477 7.81823078e-05 0)
(0.100000612 7.72474099e-05 0)
(0.099989034 7.62076197e-05 0)
(0.0999777499 7.50736604e-05 0)
(0.0999667656 7.38550463e-05 0)
(0.0999560857 7.25602199e-05 0)
(0.0999457137 7.11967039e-05 0)
(0.099935652 6.97712552e-05 0)
(0.0999259022 6.829001e-05 0)
(0.0999164651 6.67586078e-05 0)
(0.0999073409 6.51822833e-05 0)
(0.0998985293 6.35659251e-05 0)
(0.0998900296 6.19141035e-05 0)
(0.0998818412 6.02310716e-05 0)
(0.0998739632 5.85207504e-05 0)
(0.0998663949 5.67867034e-05 0)
(0.0998591355 5.50321007e-05 0)
(0.0998521846 5.325968e-05 0)
(0.0998455415 5.14716916e-05 0)
(0.0998392065 4.96698827e-05 0)
(0.0998331774 4.78552389e-05 0)
(0.0998274612 4.60287401e-05 0)
(0.099822033 4.4187076e-05 0)
(0.0998169812 4.23426485e-05 0)
(0.0998120075 4.04254197e-05 0)
(0.0998082197 3.8757122e-05 0)
(0.0998020957 3.57866794e-05 0)
(0.0999986943 4.24761392e-05 0)
(0.0999852644 0.000139027838 0)
(0.0999549032 0.000238042356 0)
(0.0999066973 0.000329586433 0)
(0.0998432233 0.000405553258 0)
(0.0997680922 0.000459537805 0)
(0.0996851809 0.000487603456 0)
(0.0995987068 0.000489170662 0)
(0.0995130084 0.000466536543 0)
(0.0994321222 0.000423103688 0)
(0.0993596016 0.000362181852 0)
(0.099298516 0.000287649858 0)
(0.0992512277 0.000205765734 0)
(0.0992187947 0.000126204845 0)
(0.0992001831 6.09975946e-05 0)
(0.0991918475 2.15431069e-05 0)
(0.0991890148 1.56785376e-05 0)
(0.0991867468 4.55435437e-05 0)
(0.0991793414 0.000106936973 0)
(0.0991611787 0.00019062491 0)
(0.0991287818 0.000284406752 0)
(0.0990813816 0.000375704568 0)
(0.0990203461 0.000453671309 0)
(0.0989486065 0.000510454723 0)
(0.0988700853 0.000541576246 0)
(0.098789169 0.000545623675 0)
(0.0987102703 0.000523638785 0)
(0.0986375009 0.000478556313 0)
(0.098574441 0.000414899707 0)
(0.0985239337 0.000338767097 0)
(0.0984878347 0.000257939047 0)
(0.0984667092 0.000181761534 0)
(0.0984595472 0.000120444146 0)
(0.0984636406 8.36336404e-05 0)
(0.098474785 7.84794637e-05 0)
(0.0984877952 0.000107714163 0)
(0.0984972208 0.000168461668 0)
(0.0984982676 0.000252437707 0)
(0.0984877469 0.000347602948 0)
(0.098464649 0.000440891709 0)
(0.0984301438 0.000521256045 0)
(0.0983870403 0.000582072957 0)
(0.098338893 0.000622148526 0)
(0.0982890374 0.000645061537 0)
(0.0982398492 0.000657209551 0)
(0.0981924196 0.000665378756 0)
(0.0981466667 0.000674747047 0)
(0.0981017476 0.000687923659 0)
(0.0980565557 0.000705107925 0)
(0.0980101131 0.000724988902 0)
(0.0979617614 0.00074581361 0)
(0.0979111644 0.000766158526 0)
(0.0978582026 0.000785219829 0)
(0.0978028522 0.000802709122 0)
(0.0977451063 0.000818576311 0)
(0.0976849533 0.000832762676 0)
(0.0976223939 0.000845081942 0)
(0.0975574692 0.000855221849 0)
(0.0974902812 0.000862805529 0)
(0.0974210007 0.00086745409 0)
(0.0973498641 0.00086882201 0)
(0.0972771669 0.000866605812 0)
(0.0972032568 0.000860539648 0)
(0.0971285284 0.000850390141 0)
(0.0970534181 0.000835955636 0)
(0.0969783998 0.000817069111 0)
(0.09690398 0.000793601909 0)
(0.0968306929 0.000765466149 0)
(0.0967590956 0.000732615118 0)
(0.0966897638 0.000695041954 0)
(0.0966232869 0.000652777359 0)
(0.0965602636 0.000605886987 0)
(0.0965012967 0.000554468958 0)
(0.0964469891 0.000498651819 0)
(0.09639794 0.000438593096 0)
(0.0963547418 0.000374478657 0)
(0.0963179758 0.00030652146 0)
(0.0962882073 0.000234959789 0)
(0.0962659769 0.000160051113 0)
(0.0962518416 8.2068346e-05 0)
(0.0962465277 1.40597499e-06 0)
(0.0962504384 -8.12574358e-05 0)
(0.0962638535 -0.000165640623 0)
(0.0962872697 -0.000251289072 0)
(0.0963210059 -0.000337661197 0)
(0.0963652961 -0.00042416717 0)
(0.0964202878 -0.000510175581 0)
(0.096486029 -0.000595006126 0)
(0.0965624561 -0.000677934943 0)
(0.0966493836 -0.000758209143 0)
(0.0967464961 -0.000835062196 0)
(0.0968533438 -0.000907730552 0)
(0.0969693433 -0.000975472327 0)
(0.0970937818 -0.00103758669 0)
(0.097225825 -0.00109343296 0)
(0.0973645295 -0.00114244881 0)
(0.0975088589 -0.00118416691 0)
(0.0976577021 -0.00121822912 0)
(0.0978098953 -0.00124439724 0)
(0.0979642452 -0.00126255964 0)
(0.0981195536 -0.00127273325 0)
(0.0982746417 -0.00127506096 0)
(0.0984283735 -0.00126980453 0)
(0.0985796769 -0.00125733378 0)
(0.0987275616 -0.00123811284 0)
(0.0988711338 -0.00121268408 0)
(0.0990096067 -0.00118165089 0)
(0.0991423076 -0.00114565984 0)
(0.0992686802 -0.00110538322 0)
(0.0993882848 -0.00106150242 0)
(0.0995007946 -0.00101469269 0)
(0.0996059899 -0.000965609816 0)
(0.0997037501 -0.000914878703 0)
(0.099794045 -0.000863084076 0)
(0.0998769246 -0.000810763304 0)
(0.0999525096 -0.000758401342 0)
(0.100020982 -0.000706427667 0)
(0.100082575 -0.000655215737 0)
(0.100137567 -0.000605085934 0)
(0.100186269 -0.000556309437 0)
(0.100229014 -0.000509110865 0)
(0.100266149 -0.000463670577 0)
(0.100298029 -0.000420127641 0)
(0.100325011 -0.00037858344 0)
(0.100347448 -0.00033910557 0)
(0.10036569 -0.000301731137 0)
(0.100380074 -0.000266470193 0)
(0.100390928 -0.000233310069 0)
(0.100398566 -0.000202219722 0)
(0.100403287 -0.000173153392 0)
(0.100405375 -0.000146053491 0)
(0.100405095 -0.000120852508 0)
(0.100402697 -9.74726701e-05 0)
(0.100398414 -7.58261546e-05 0)
(0.100392469 -5.58163809e-05 0)
(0.100385084 -3.73466004e-05 0)
(0.100376489 -2.03357198e-05 0)
(0.100366919 -4.80712586e-06 0)
(0.100356463 9.34025752e-06 0)
(0.10034516 2.20872936e-05 0)
(0.100333149 3.34789908e-05 0)
(0.100320544 4.35898904e-05 0)
(0.100307417 5.25059624e-05 0)
(0.100293839 6.03263523e-05 0)
(0.100279871 6.71621554e-05 0)
(0.10026558 7.31199419e-05 0)
(0.100251042 7.82895916e-05 0)
(0.100236325 8.27484678e-05 0)
(0.100221489 8.65660945e-05 0)
(0.100206583 8.98047905e-05 0)
(0.100191654 9.25203177e-05 0)
(0.100176746 9.47619713e-05 0)
(0.100161902 9.65721382e-05 0)
(0.100147163 9.7986951e-05 0)
(0.100132567 9.90379828e-05 0)
(0.100118146 9.97538561e-05 0)
(0.100103927 0.000100161207 0)
(0.100089933 0.000100285235 0)
(0.100076182 0.000100150044 0)
(0.10006269 9.97787029e-05 0)
(0.100049468 9.91931243e-05 0)
(0.100036527 9.84139245e-05 0)
(0.100023874 9.74603229e-05 0)
(0.100011517 9.63500852e-05 0)
(0.0999994617 9.50995145e-05 0)
(0.0999877124 9.37234817e-05 0)
(0.0999762734 9.22354797e-05 0)
(0.0999651477 9.06476987e-05 0)
(0.0999543382 8.89711177e-05 0)
(0.0999438467 8.72156024e-05 0)
(0.0999336747 8.53900022e-05 0)
(0.0999238233 8.35022478e-05 0)
(0.0999142929 8.15594475e-05 0)
(0.0999050836 7.95679783e-05 0)
(0.0998961951 7.75335705e-05 0)
(0.0998876268 7.54613817e-05 0)
(0.0998793777 7.33560528e-05 0)
(0.0998714467 7.12217458e-05 0)
(0.0998638325 6.90621627e-05 0)
(0.0998565337 6.68805479e-05 0)
(0.099849549 6.46796817e-05 0)
(0.0998428768 6.2461852e-05 0)
(0.0998365164 6.02288704e-05 0)
(0.0998304643 5.79818054e-05 0)
(0.099824727 5.57219557e-05 0)
(0.0998192771 5.34458039e-05 0)
(0.0998142043 5.11692656e-05 0)
(0.0998091953 4.88091016e-05 0)
(0.0998053834 4.67580348e-05 0)
(0.0997990809 4.31292543e-05 0)
(0.0999986679 5.04406553e-05 0)
(0.0999850706 0.00016522952 0)
(0.0999544449 0.000282754937 0)
(0.0999059082 0.000391368179 0)
(0.0998420747 0.000481747982 0)
(0.0997665858 0.000546539909 0)
(0.0996833131 0.000581182039 0)
(0.0995964298 0.000584895161 0)
(0.0995102243 0.000560155688 0)
(0.0994287031 0.000510713185 0)
(0.0993553876 0.000440241298 0)
(0.099293276 0.000353093278 0)
(0.0992446428 0.00025636802 0)
(0.0992105364 0.000161182497 0)
(0.0991901854 8.16397673e-05 0)
(0.0991809573 3.17591173e-05 0)
(0.0991781726 2.16317534e-05 0)
(0.0991755294 5.39737093e-05 0)
(0.099167091 0.000123379393 0)
(0.0991483283 0.000218645824 0)
(0.0991162173 0.000325638239 0)
(0.0990696992 0.000429871088 0)
(0.0990097989 0.000518836044 0)
(0.0989391892 0.000583435559 0)
(0.0988616179 0.000618417023 0)
(0.0987813723 0.000622050359 0)
(0.0987028331 0.000595434583 0)
(0.0986301396 0.000541831714 0)
(0.0985669485 0.000466305248 0)
(0.0985162161 0.000375724686 0)
(0.0984799374 0.000278932833 0)
(0.0984588356 0.000186662048 0)
(0.0984520772 0.000110768922 0)
(0.0984571277 6.25964722e-05 0)
(0.0984698166 5.06860092e-05 0)
(0.0984847637 7.85356006e-05 0)
(0.0984963309 0.000143223355 0)
(0.0984996977 0.000235438453 0)
(0.09849165 0.00034126714 0)
(0.0984710629 0.000445370324 0)
(0.098438951 0.000534608661 0)
(0.0983979984 0.000600977637 0)
(0.0983517018 0.00064291011 0)
(0.0983034061 0.000664586739 0)
(0.0982555385 0.000673648208 0)
(0.0982092477 0.0006782816 0)
(0.0981644877 0.000684786783 0)
(0.0981204171 0.000696375901 0)
(0.0980759017 0.000713331326 0)
(0.0980299189 0.000734079491 0)
(0.0979817626 0.000756488657 0)
(0.097931054 0.000778817772 0)
(0.0978776395 0.000800081673 0)
(0.0978214689 0.000819930909 0)
(0.0977625158 0.00083831443 0)
(0.0977007545 0.000855174917 0)
(0.0976361777 0.000870299523 0)
(0.0975688252 0.000883319173 0)
(0.0974988052 0.000893782859 0)
(0.0974263027 0.000901234674 0)
(0.0973515757 0.000905257912 0)
(0.0972749491 0.000905486216 0)
(0.0971968063 0.000901598224 0)
(0.0971175839 0.000893310855 0)
(0.0970377655 0.000880377641 0)
(0.0969578759 0.000862591325 0)
(0.0968784737 0.000839787455 0)
(0.0968001438 0.000811846681 0)
(0.0967234892 0.00077869523 0)
(0.0966491241 0.000740304039 0)
(0.096577669 0.000696687229 0)
(0.0965097475 0.000647900147 0)
(0.0964459853 0.00059403701 0)
(0.0963870095 0.000535228315 0)
(0.0963334475 0.000471638463 0)
(0.0962859254 0.000403464005 0)
(0.0962450649 0.000330933583 0)
(0.09621148 0.000254311699 0)
(0.0961857787 0.000173904467 0)
(0.0961685362 9.0063904e-05 0)
(0.096160231 3.15345619e-06 0)
(0.0961614558 -8.65307305e-05 0)
(0.0961728154 -0.000178462894 0)
(0.0961947315 -0.000272135139 0)
(0.0962275867 -0.000366971209 0)
(0.0962716879 -0.000462316941 0)
(0.0963272481 -0.000557447989 0)
(0.0963943693 -0.000651577321 0)
(0.0964730305 -0.00074386328 0)
(0.096563076 -0.000833421849 0)
(0.0966642051 -0.000919342533 0)
(0.0967759645 -0.00100070796 0)
(0.0968977448 -0.00107661733 0)
(0.0970287826 -0.00114621234 0)
(0.0971681675 -0.001208704 0)
(0.0973148551 -0.00126339814 0)
(0.0974676856 -0.00130971824 0)
(0.0976254071 -0.00134722393 0)
(0.0977867031 -0.00137562422 0)
(0.097950222 -0.00139478509 0)
(0.0981146081 -0.00140473118 0)
(0.0982785316 -0.00140564175 0)
(0.0984407171 -0.0013978412 0)
(0.0985999687 -0.00138178501 0)
(0.0987551918 -0.0013580418 0)
(0.0989054091 -0.00132727274 0)
(0.0990497728 -0.00129020941 0)
(0.0991875711 -0.00124763115 0)
(0.0993182307 -0.00120034318 0)
(0.0994413141 -0.00114915597 0)
(0.0995565145 -0.0010948668 0)
(0.0996636471 -0.00103824387 0)
(0.0997626386 -0.000980013096 0)
(0.0998535154 -0.000920847843 0)
(0.0999363909 -0.000861361398 0)
(0.100011453 -0.000802102193 0)
(0.100078951 -0.000743551529 0)
(0.100139188 -0.000686123859 0)
(0.100192502 -0.000630169442 0)
(0.100239265 -0.000575978174 0)
(0.100279864 -0.000523783568 0)
(0.100314697 -0.000473766862 0)
(0.100344166 -0.000426061546 0)
(0.100368668 -0.000380758221 0)
(0.100388593 -0.000337909525 0)
(0.10040432 -0.000297534882 0)
(0.100416212 -0.000259625063 0)
(0.100424618 -0.000224146711 0)
(0.10042987 -0.000191046788 0)
(0.100432282 -0.00016025678 0)
(0.100432152 -0.000131696654 0)
(0.10042976 -0.000105278557 0)
(0.100425371 -8.0910549e-05 0)
(0.100419234 -5.85012364e-05 0)
(0.100411577 -3.79631749e-05 0)
(0.100402586 -1.92037095e-05 0)
(0.100392319 -2.06277417e-06 0)
(0.100380978 1.35722214e-05 0)
(0.100368888 2.76796828e-05 0)
(0.100356171 4.03359821e-05 0)
(0.10034289 5.16433477e-05 0)
(0.100329109 6.16840471e-05 0)
(0.100314894 7.05442919e-05 0)
(0.100300312 7.83114858e-05 0)
(0.100285422 8.50742583e-05 0)
(0.100270285 9.0921834e-05 0)
(0.100254961 9.59364204e-05 0)
(0.100239513 0.000100191594 0)
(0.100224003 0.000103754722 0)
(0.100208489 0.00010668852 0)
(0.100193027 0.000109051869 0)
(0.10017766 0.00011089991 0)
(0.100162426 0.000112283613 0)
(0.100147354 0.000113249443 0)
(0.100132469 0.000113839138 0)
(0.100117793 0.000114089747 0)