/*--------------------------------*- C++ -*----------------------------------*\
| =========                 |                                                 |
| \\      /  F ield         | OpenFOAM: The Open Source CFD Toolbox           |
|  \\    /   O peration     | Version:  v2012                                 |
|   \\  /    A nd           | Website:  www.openfoam.com                      |
|    \\/     M anipulation  |                                                 |
\*---------------------------------------------------------------------------*/
FoamFile
{
    version     2.0;
    format      ascii;
    class       volScalarField;
    location    "2.39";
    object      rAU;
}
// * * * * * * * * * * * * * * * * * * * * * * * * * * * * * * * * * * * * * //

dimensions      [0 0 1 0 0 0 0];


internalField   nonuniform List<scalar> 
28416
(
0.00065634515
0.000656354916
0.00065635276
0.000656351987
0.000656352906
0.000656355666
0.000656360224
0.000656366339
0.000656373615
0.000656381614
0.000656389922
0.000656398121
0.000656405692
0.000656412005
0.000656416373
0.000656417726
0.000656418501
0.000656418019
0.000656415658
0.000656412845
0.000656410235
0.000656408471
0.000656408076
0.000656409355
0.000656412389
0.000656417064
0.00065642312
0.000656430174
0.000656437749
0.000656445295
0.000656452214
0.000656457905
0.000656461813
0.000656463518
0.000656462951
0.000656460256
0.000656455898
0.000656450609
0.000656445239
0.000656440579
0.000656437196
0.000656435336
0.000656434912
0.000656435595
0.000656436948
0.000656438569
0.000656440192
0.000656441712
0.000656443163
0.000656444647
0.000656446278
0.000656448143
0.000656450288
0.000656452733
0.000656455485
0.000656458552
0.000656461947
0.000656465686
0.000656469786
0.000656474256
0.000656479103
0.000656484327
0.000656489921
0.000656495873
0.000656502168
0.000656508782
0.000656515694
0.000656522869
0.000656530273
0.000656537871
0.000656545613
0.000656553454
0.000656561342
0.000656569219
0.000656577025
0.0006565847
0.000656592176
0.000656599398
0.000656606322
0.000656612906
0.000656619093
0.000656616967
0.000656612458
0.000656607271
0.00065660142
0.000656594924
0.0006565878
0.000656580079
0.000656571792
0.000656562983
0.0006565537
0.000656544004
0.000656533953
0.000656523615
0.000656513062
0.000656502364
0.000656491591
0.000656480819
0.000656470115
0.000656459544
0.000656449174
0.000656439061
0.000656429257
0.000656419811
0.000656410767
0.000656402154
0.000656394004
0.000656386335
0.000656379163
0.000656372493
0.000656366334
0.000656360677
0.000656355518
0.000656350848
0.00065634665
0.00065634291
0.000656339618
0.000656336752
0.00065633429
0.000656332209
0.000656330481
0.00065632908
0.000656327982
0.000656327167
0.000656326609
0.000656326285
0.00065632618
0.000656326268
0.000656326531
0.000656326954
0.000656327516
0.0006563282
0.000656328995
0.000656329884
0.000656330855
0.000656331899
0.000656332999
0.000656334137
0.000656335291
0.000656336421
0.000656337228
0.00065633741
0.000656337342
0.000656337439
0.000656337674
0.000656338021
0.000656338465
0.00065633899
0.000656339587
0.000656340239
0.000656340939
0.00065634168
0.000656342454
0.000656343255
0.000656344082
0.000656344929
0.000656345792
0.000656346671
0.00065634756
0.000656348456
0.000656349357
0.000656350261
0.000656351162
0.000656352063
0.000656352956
0.000656353842
0.000656354716
0.000656355583
0.000656356435
0.000656357272
0.000656358098
0.000656358907
0.000656359699
0.000656360476
0.000656361236
0.000656361976
0.000656362701
0.000656363405
0.000656364091
0.000656364756
0.000656365403
0.000656366029
0.000656366632
0.000656367217
0.000656367779
0.000656368318
0.000656368836
0.000656369335
0.000656369788
0.000656383176
0.0006563355
0.000656345675
0.000656344163
0.000656344154
0.000656345834
0.000656349239
0.000656354227
0.000656360501
0.000656367652
0.000656375263
0.000656382944
0.000656390323
0.000656396978
0.000656402455
0.000656406367
0.00065640861
0.000656409102
0.000656408091
0.000656406186
0.000656404188
0.000656402793
0.000656402531
0.000656403738
0.000656406534
0.00065641083
0.000656416382
0.000656422852
0.000656429841
0.000656436919
0.000656443632
0.000656449524
0.000656454165
0.000656457201
0.000656458426
0.000656457854
0.00065645575
0.000656452615
0.000656449114
0.000656445948
0.000656443706
0.000656442749
0.000656443147
0.000656444707
0.000656447064
0.000656449811
0.000656452616
0.000656455287
0.000656457781
0.000656460168
0.000656462559
0.000656465063
0.000656467754
0.000656470666
0.000656473811
0.000656477189
0.000656480804
0.000656484663
0.000656488776
0.000656493152
0.000656497795
0.000656502704
0.000656507873
0.000656513289
0.000656518936
0.000656524794
0.000656530838
0.000656537043
0.000656543373
0.000656549793
0.000656556268
0.000656562753
0.000656569202
0.000656575574
0.000656581815
0.000656587875
0.000656593708
0.000656599259
0.000656604477
0.000656609314
0.000656613711
0.000656617588
0.000656613689
0.000656608564
0.000656602719
0.000656596163
0.000656588913
0.000656580986
0.00065657242
0.000656563251
0.000656553529
0.000656543309
0.00065653266
0.000656521648
0.00065651035
0.000656498851
0.000656487227
0.000656475564
0.000656463946
0.00065645245
0.000656441152
0.000656430128
0.00065641944
0.000656409147
0.0006563993
0.000656389945
0.000656381112
0.000656372832
0.000656365118
0.000656357983
0.000656351428
0.000656345454
0.000656340048
0.000656335195
0.000656330882
0.000656327084
0.000656323777
0.000656320942
0.000656318548
0.000656316567
0.000656314972
0.000656313732
0.000656312817
0.000656312198
0.000656311851
0.000656311748
0.000656311862
0.000656312175
0.000656312662
0.000656313303
0.000656314082
0.000656314979
0.000656315976
0.000656317061
0.000656318216
0.000656319428
0.000656320688
0.000656321979
0.000656323293
0.000656324636
0.000656325553
0.000656325964
0.00065632619
0.000656326541
0.000656326999
0.000656327552
0.000656328182
0.000656328881
0.000656329637
0.000656330444
0.00065633129
0.000656332168
0.000656333076
0.000656334003
0.000656334945
0.000656335902
0.000656336865
0.000656337832
0.000656338803
0.000656339771
0.000656340737
0.000656341695
0.000656342647
0.000656343588
0.000656344519
0.000656345437
0.00065634634
0.000656347227
0.0006563481
0.000656348954
0.000656349789
0.000656350608
0.000656351406
0.000656352184
0.000656352944
0.000656353682
0.000656354398
0.000656355097
0.000656355772
0.000656356426
0.000656357058
0.00065635767
0.000656358259
0.000656358825
0.000656359372
0.000656359895
0.000656360394
0.000656360874
0.000656361333
0.000656361756
0.000656375084
0.000656335035
0.000656344079
0.000656341386
0.000656340265
0.000656340982
0.00065634365
0.00065634819
0.000656354325
0.000656361637
0.000656369684
0.000656378059
0.000656386368
0.000656394131
0.000656400776
0.000656405717
0.000656408536
0.000656409148
0.000656407967
0.000656405651
0.000656402941
0.00065640063
0.0006563994
0.000656399714
0.0006564018
0.000656405651
0.000656411059
0.000656417691
0.000656425127
0.000656432898
0.000656440492
0.000656447374
0.000656453015
0.000656456943
0.00065645883
0.000656458588
0.000656456425
0.000656452852
0.000656448606
0.000656444515
0.000656441325
0.000656439541
0.000656439335
0.000656440545
0.000656442774
0.000656445541
0.000656448421
0.000656451152
0.00065645365
0.000656455975
0.000656458258
0.000656460631
0.000656463188
0.000656465978
0.000656469016
0.000656472306
0.00065647585
0.000656479658
0.000656483741
0.000656488114
0.000656492784
0.000656497752
0.000656503015
0.000656508562
0.000656514379
0.000656520445
0.000656526736
0.000656533228
0.000656539883
0.000656546667
0.000656553543
0.000656560465
0.000656567388
0.000656574269
0.000656581053
0.000656587688
0.000656594126
0.000656600306
0.000656606172
0.000656611673
0.000656616756
0.000656621383
0.000656616628
0.000656610907
0.000656604427
0.000656597195
0.000656589233
0.000656580562
0.000656571223
0.000656561258
0.000656550722
0.00065653968
0.000656528206
0.000656516378
0.000656504279
0.000656492004
0.000656479642
0.000656467285
0.000656455029
0.00065644296
0.00065643116
0.000656419713
0.000656408684
0.000656398136
0.000656388121
0.000656378683
0.000656369851
0.000656361651
0.000656354094
0.000656347184
0.000656340917
0.000656335286
0.00065633027
0.000656325848
0.000656321997
0.000656318685
0.000656315882
0.000656313559
0.00065631168
0.000656310211
0.000656309123
0.000656308377
0.000656307942
0.000656307787
0.000656307885
0.000656308206
0.000656308723
0.000656309417
0.000656310261
0.000656311236
0.000656312326
0.00065631351
0.000656314771
0.000656316101
0.000656317481
0.000656318902
0.000656320354
0.000656321827
0.00065632331
0.000656324385
0.00065632464
0.00065632475
0.00065632498
0.000656325329
0.000656325786
0.000656326343
0.000656326982
0.000656327693
0.000656328463
0.000656329288
0.000656330154
0.000656331054
0.000656331983
0.000656332932
0.000656333897
0.000656334875
0.000656335861
0.00065633685
0.000656337844
0.000656338836
0.000656339825
0.000656340807
0.000656341785
0.00065634275
0.000656343707
0.00065634465
0.000656345579
0.000656346492
0.00065634739
0.000656348269
0.000656349129
0.000656349973
0.000656350796
0.000656351598
0.000656352382
0.000656353145
0.000656353885
0.000656354606
0.000656355305
0.000656355983
0.000656356638
0.000656357274
0.000656357886
0.000656358475
0.000656359045
0.000656359591
0.000656360115
0.000656360618
0.000656361102
0.000656361545
0.000656374902
0.000656334442
0.000656342201
0.000656338207
0.00065633592
0.00065633572
0.000656337795
0.000656342104
0.00065634836
0.000656356098
0.000656364813
0.000656374032
0.000656383291
0.000656392026
0.000656399555
0.000656405192
0.00065640845
0.000656409143
0.000656407478
0.000656404178
0.000656400263
0.000656396744
0.000656394478
0.000656394052
0.000656395751
0.00065639958
0.000656405306
0.000656412541
0.000656420798
0.000656429529
0.000656438137
0.000656445995
0.000656452471
0.000656456992
0.000656459142
0.000656458773
0.000656456084
0.000656451643
0.000656446317
0.000656441097
0.000656436893
0.000656434336
0.000656433656
0.000656434681
0.000656436946
0.000656439869
0.00065644293
0.000656445794
0.00065644835
0.00065645066
0.00065645288
0.000656455172
0.000656457653
0.000656460387
0.000656463394
0.000656466679
0.000656470247
0.000656474107
0.000656478278
0.000656482775
0.00065648761
0.000656492789
0.000656498308
0.00065650416
0.000656510329
0.000656516797
0.000656523537
0.000656530524
0.00065653772
0.000656545088
0.000656552588
0.000656560172
0.000656567791
0.000656575398
0.000656582935
0.000656590348
0.000656597584
0.000656604582
0.000656611285
0.000656617638
0.000656623571
0.000656629004
0.00065662364
0.000656617313
0.000656610157
0.000656602182
0.000656593412
0.000656583871
0.000656573605
0.00065656266
0.0006565511
0.000656538997
0.000656526438
0.00065651351
0.000656500312
0.000656486951
0.000656473532
0.00065646016
0.000656446946
0.000656433987
0.000656421379
0.000656409214
0.000656397565
0.0006563865
0.000656376075
0.000656366336
0.000656357309
0.000656349018
0.000656341469
0.000656334659
0.000656328577
0.000656323208
0.000656318522
0.000656314487
0.000656311074
0.000656308239
0.000656305944
0.000656304152
0.000656302818
0.000656301901
0.000656301365
0.000656301168
0.000656301274
0.000656301646
0.000656302257
0.000656303072
0.000656304062
0.000656305207
0.00065630648
0.000656307858
0.000656309327
0.000656310866
0.00065631246
0.000656314098
0.000656315765
0.00065631745
0.000656319144
0.00065632083
0.000656322195
0.00065632254
0.000656322593
0.00065632278
0.000656323089
0.000656323511
0.000656324033
0.000656324648
0.000656325341
0.000656326102
0.000656326919
0.000656327789
0.000656328699
0.000656329643
0.000656330619
0.000656331615
0.000656332628
0.000656333656
0.00065633469
0.000656335727
0.000656336768
0.000656337805
0.000656338838
0.000656339862
0.000656340879
0.000656341884
0.000656342878
0.000656343857
0.000656344821
0.000656345768
0.000656346699
0.000656347612
0.000656348504
0.00065634938
0.000656350234
0.000656351066
0.00065635188
0.000656352672
0.00065635344
0.00065635419
0.000656354916
0.000656355621
0.000656356302
0.000656356963
0.000656357601
0.000656358215
0.000656358809
0.00065635938
0.000656359928
0.000656360456
0.000656360964
0.000656361432
0.000656374831
0.000656333923
0.000656340483
0.000656335253
0.000656331816
0.000656330645
0.000656332009
0.000656335918
0.000656342107
0.000656350093
0.000656359343
0.000656369352
0.000656379618
0.000656389507
0.000656398223
0.000656404896
0.000656408825
0.000656409741
0.000656407933
0.000656404098
0.000656399303
0.000656394705
0.000656391333
0.000656389928
0.000656390895
0.000656394309
0.000656399964
0.000656407468
0.000656416301
0.000656425865
0.000656435491
0.000656444458
0.000656452016
0.000656457458
0.000656460236
0.000656460101
0.000656457212
0.000656452171
0.000656445934
0.000656439636
0.000656434356
0.000656430875
0.000656429521
0.000656430149
0.000656432251
0.000656435158
0.000656438255
0.000656441133
0.00065644364
0.000656445837
0.000656447896
0.000656450008
0.000656452315
0.000656454892
0.000656457769
0.000656460951
0.000656464444
0.000656468262
0.000656472426
0.000656476957
0.000656481871
0.000656487176
0.000656492872
0.000656498952
0.000656505402
0.000656512201
0.000656519324
0.000656526742
0.000656534417
0.000656542308
0.000656550376
0.000656558568
0.000656566834
0.000656575127
0.000656583386
0.000656591554
0.000656599577
0.000656607389
0.000656614929
0.000656622135
0.00065662894
0.000656635279
0.000656629698
0.00065662277
0.000656614946
0.000656606234
0.000656596657
0.000656586244
0.000656575044
0.000656563111
0.000656550514
0.000656537337
0.000656523676
0.000656509632
0.000656495318
0.000656480857
0.000656466367
0.000656451972
0.000656437796
0.000656423954
0.000656410552
0.000656397694
0.000656385462
0.00065637393
0.000656363155
0.000656353185
0.000656344044
0.000656335751
0.000656328304
0.000656321694
0.0006563159
0.000656310896
0.000656306641
0.000656303094
0.000656300214
0.000656297947
0.000656296244
0.000656295059
0.000656294339
0.000656294036
0.000656294108
0.000656294506
0.000656295191
0.000656296123
0.000656297271
0.000656298597
0.000656300073
0.000656301676
0.000656303379
0.00065630516
0.000656307003
0.000656308889
0.000656310802
0.000656312732
0.000656314663
0.000656316585
0.000656318496
0.000656320276
0.000656320786
0.000656320748
0.000656320854
0.000656321092
0.000656321451
0.000656321922
0.00065632249
0.00065632315
0.000656323887
0.000656324693
0.000656325556
0.000656326471
0.000656327426
0.000656328412
0.000656329427
0.000656330462
0.000656331511
0.000656332573
0.000656333642
0.000656334713
0.000656335788
0.000656336858
0.000656337924
0.000656338982
0.000656340033
0.00065634107
0.000656342096
0.000656343107
0.000656344102
0.000656345079
0.00065634604
0.000656346982
0.000656347902
0.000656348805
0.000656349685
0.000656350544
0.000656351384
0.0006563522
0.000656352994
0.000656353768
0.000656354519
0.000656355247
0.000656355952
0.000656356638
0.000656357299
0.000656357937
0.000656358555
0.00065635915
0.000656359721
0.000656360272
0.000656360805
0.000656361291
0.000656374718
0.000656333395
0.000656338743
0.000656332261
0.000656327662
0.000656325532
0.000656326227
0.000656329811
0.000656336025
0.000656344357
0.000656354226
0.000656365076
0.000656376346
0.000656387315
0.000656397063
0.000656404574
0.000656409039
0.000656410067
0.000656407895
0.00065640333
0.000656397542
0.000656391851
0.000656387446
0.000656385205
0.000656385623
0.000656388825
0.000656394611
0.000656402563
0.000656412113
0.000656422598
0.000656433272
0.000656443321
0.000656451887
0.000656458146
0.00065646144
0.000656461435
0.000656458241
0.000656452483
0.000656445222
0.000656437757
0.000656431342
0.000656426904
0.000656424865
0.000656425097
0.000656427042
0.000656429943
0.000656433086
0.000656435984
0.000656438443
0.00065644052
0.000656442407
0.000656444325
0.000656446441
0.000656448848
0.000656451583
0.000656454655
0.000656458074
0.000656461858
0.000656466032
0.000656470624
0.000656475653
0.000656481132
0.000656487063
0.00065649344
0.000656500251
0.000656507474
0.000656515082
0.000656523046
0.000656531326
0.000656539877
0.000656548657
0.000656557608
0.000656566677
0.00065657581
0.000656584943
0.000656594016
0.00065660297
0.000656611737
0.000656620251
0.000656628447
0.000656636251
0.000656643584
0.000656638251
0.000656630716
0.000656622196
0.000656612698
0.000656602248
0.000656590872
0.000656578624
0.000656565563
0.000656551768
0.000656537332
0.000656522365
0.000656506984
0.000656491322
0.000656475519
0.000656459717
0.000656444058
0.000656428689
0.00065641374
0.000656399336
0.000656385594
0.000656372606
0.000656360455
0.000656349201
0.000656338892
0.00065632955
0.000656321189
0.000656313799
0.00065630736
0.000656301841
0.000656297203
0.000656293393
0.000656290357
0.00065628804
0.000656286377
0.000656285309
0.000656284777
0.000656284721
0.000656285083
0.000656285814
0.00065628686
0.000656288176
0.000656289718
0.000656291452
0.000656293339
0.000656295347
0.000656297453
0.000656299628
0.000656301851
0.000656304107
0.000656306376
0.000656308644
0.000656310905
0.000656313145
0.000656315354
0.000656317516
0.000656318458
0.000656318342
0.000656318393
0.000656318589
0.000656318919
0.000656319368
0.000656319927
0.000656320579
0.000656321319
0.000656322131
0.000656323008
0.000656323938
0.000656324917
0.000656325933
0.00065632698
0.000656328056
0.000656329149
0.000656330256
0.000656331375
0.000656332498
0.000656333621
0.000656334746
0.000656335864
0.000656336976
0.000656338077
0.000656339169
0.000656340247
0.000656341312
0.00065634236
0.000656343391
0.000656344403
0.000656345399
0.000656346373
0.000656347327
0.000656348261
0.000656349174
0.000656350063
0.000656350933
0.000656351779
0.000656352601
0.000656353403
0.000656354181
0.000656354935
0.000656355666
0.000656356377
0.000656357063
0.000656357725
0.000656358368
0.000656358986
0.000656359581
0.000656360155
0.000656360712
0.000656361221
0.00065637469
0.000656332864
0.000656336999
0.000656329262
0.000656323494
0.000656320385
0.000656320375
0.000656323588
0.000656329782
0.000656338424
0.000656348894
0.000656360592
0.000656372906
0.000656385036
0.000656395943
0.000656404461
0.000656409612
0.000656410909
0.000656408528
0.00065640331
0.000656396564
0.000656389759
0.000656384249
0.000656381061
0.000656380802
0.000656383661
0.000656389464
0.000656397781
0.000656408006
0.000656419419
0.000656431195
0.000656442417
0.000656452106
0.000656459306
0.000656463226
0.00065646343
0.000656459987
0.00065645358
0.000656445348
0.000656436734
0.00065642916
0.000656423712
0.000656420912
0.000656420659
0.000656422356
0.00065642516
0.000656428258
0.000656431088
0.000656433415
0.000656435289
0.000656436926
0.000656438572
0.000656440422
0.000656442586
0.000656445111
0.000656448011
0.000656451298
0.000656454994
0.000656459132
0.000656463745
0.000656468858
0.000656474487
0.000656480637
0.000656487304
0.000656494474
0.000656502125
0.000656510226
0.000656518748
0.000656527643
0.000656536864
0.000656546364
0.000656556085
0.000656565968
0.000656575958
0.000656585989
0.000656595996
0.000656605919
0.000656615686
0.000656625228
0.000656634476
0.00065664335
0.000656651773
0.000656647282
0.000656639145
0.000656629924
0.000656619625
0.000656608269
0.000656595887
0.000656582532
0.000656568269
0.000656553187
0.000656537389
0.000656521001
0.000656504159
0.000656487015
0.000656469734
0.00065645248
0.000656435422
0.000656418731
0.000656402559
0.000656387053
0.000656372345
0.000656358541
0.000656345732
0.000656333982
0.000656323341
0.000656313824
0.000656305439
0.000656298165
0.000656291972
0.000656286812
0.000656282633
0.000656279365
0.00065627694
0.000656275287
0.000656274328
0.000656273989
0.000656274203
0.000656274895
0.000656276001
0.000656277463
0.000656279222
0.000656281227
0.00065628343
0.000656285794
0.000656288279
0.00065629085
0.000656293485
0.000656296154
0.000656298838
0.000656301521
0.000656304184
0.000656306813
0.000656309402
0.000656311937
0.000656314417
0.000656315972
0.000656315972
0.000656315954
0.000656316102
0.000656316395
0.000656316817
0.000656317355
0.000656318
0.000656318734
0.000656319553
0.000656320442
0.000656321392
0.000656322392
0.000656323438
0.000656324519
0.000656325627
0.00065632676
0.000656327908
0.000656329068
0.000656330237
0.000656331409
0.00065633258
0.00065633375
0.000656334914
0.000656336068
0.000656337211
0.000656338345
0.000656339461
0.000656340564
0.000656341649
0.000656342715
0.000656343761
0.00065634479
0.000656345796
0.00065634678
0.000656347744
0.000656348685
0.000656349602
0.000656350498
0.000656351371
0.000656352219
0.000656353046
0.000656353849
0.000656354629
0.000656355384
0.000656356119
0.000656356829
0.000656357515
0.000656358181
0.000656358823
0.000656359441
0.000656360039
0.000656360619
0.000656361146
0.000656374642
0.00065633233
0.000656335243
0.00065632624
0.000656319292
0.000656315196
0.000656314483
0.000656317337
0.000656323533
0.000656332517
0.000656343624
0.000656356205
0.000656369588
0.000656382884
0.000656394925
0.000656404399
0.000656410171
0.000656411648
0.000656409002
0.000656403116
0.000656395408
0.000656387505
0.000656380926
0.00065637684
0.000656375959
0.000656378534
0.000656384413
0.000656393151
0.000656404102
0.000656416484
0.000656429391
0.000656441807
0.000656452635
0.000656460782
0.000656465337
0.000656464349
0.00065646212
0.000656455025
0.00065644576
0.000656435933
0.000656427143
0.000656420632
0.000656417023
0.000656416244
0.000656417656
0.000656420327
0.000656423348
0.000656426074
0.000656428227
0.000656429851
0.000656431182
0.000656432498
0.00065643402
0.000656435881
0.000656438137
0.000656440809
0.000656443915
0.000656447484
0.000656451555
0.000656456167
0.000656461354
0.000656467135
0.000656473519
0.000656480501
0.000656488068
0.000656496197
0.000656504856
0.00065651401
0.000656523611
0.000656533605
0.000656543941
0.000656554554
0.000656565379
0.000656576357
0.000656587414
0.000656598485
0.000656609503
0.000656620394
0.000656631087
0.000656641508
0.000656651573
0.000656661197
0.000656658257
0.000656649518
0.000656639581
0.000656628445
0.000656616129
0.000656602658
0.000656588089
0.00065657249
0.000656555959
0.000656538611
0.000656520592
0.000656502059
0.00065648319
0.000656464179
0.000656445223
0.00065642652
0.000656408272
0.00065639066
0.000656373855
0.000656358011
0.000656343248
0.000656329668
0.00065631734
0.000656306311
0.000656296593
0.000656288183
0.000656281047
0.000656275139
0.000656270393
0.000656266738
0.000656264088
0.000656262354
0.000656261449
0.000656261278
0.000656261753
0.000656262793
0.000656264312
0.000656266236
0.000656268499
0.000656271035
0.000656273788
0.000656276708
0.000656279752
0.000656282879
0.000656286055
0.000656289254
0.00065629245
0.00065629562
0.000656298752
0.000656301828
0.000656304838
0.000656307777
0.000656310635
0.000656312816
0.000656313122
0.000656313053
0.000656313163
0.000656313437
0.000656313854
0.000656314399
0.000656315056
0.000656315815
0.000656316658
0.00065631758
0.000656318567
0.000656319609
0.000656320698
0.000656321828
0.000656322988
0.000656324172
0.000656325378
0.000656326596
0.000656327822
0.000656329054
0.000656330286
0.000656331513
0.000656332738
0.000656333952
0.000656335156
0.000656336346
0.000656337524
0.000656338683
0.000656339827
0.000656340951
0.000656342055
0.000656343138
0.000656344202
0.000656345243
0.00065634626
0.000656347257
0.00065634823
0.000656349178
0.000656350104
0.000656351006
0.000656351882
0.000656352737
0.000656353567
0.000656354373
0.000656355153
0.000656355913
0.000656356647
0.000656357357
0.000656358047
0.000656358712
0.000656359353
0.000656359973
0.000656360576
0.000656361125
0.000656374661
0.000656331791
0.000656333469
0.000656323186
0.000656315043
0.000656309943
0.000656308511
0.000656310995
0.000656317189
0.000656326518
0.000656338277
0.000656351766
0.000656366252
0.000656380759
0.000656393991
0.000656404476
0.000656410931
0.000656412658
0.000656409777
0.000656403227
0.000656394547
0.000656385521
0.000656377837
0.000656372813
0.000656371276
0.000656373545
0.000656379492
0.000656388663
0.000656400372
0.000656413773
0.000656427876
0.000656441557
0.000656453593
0.000656462757
0.000656467234
0.000656463824
0.000656463254
0.000656457029
0.000656446758
0.00065643572
0.000656425693
0.000656418079
0.000656413607
0.00065641224
0.0006564133
0.000656415769
0.00065641864
0.000656421186
0.000656423085
0.000656424377
0.000656425316
0.000656426215
0.000656427326
0.0006564288
0.000656430709
0.000656433082
0.000656435943
0.000656439328
0.000656443286
0.000656447864
0.000656453102
0.000656459025
0.000656465644
0.000656472956
0.000656480948
0.000656489592
0.000656498853
0.000656508691
0.000656519048
0.000656529867
0.000656541089
0.000656552643
0.000656564461
0.000656576476
0.000656588616
0.000656600809
0.000656612988
0.000656625076
0.000656636999
0.000656648683
0.00065666004
0.000656670982
0.000656670463
0.00065666114
0.000656650491
0.000656638506
0.000656625194
0.000656610577
0.00065659471
0.000656577664
0.000656559544
0.000656540481
0.000656520639
0.000656500202
0.000656479378
0.000656458398
0.000656437495
0.000656416909
0.000656396878
0.000656377619
0.000656359334
0.000656342203
0.000656326366
0.000656311934
0.000656298982
0.000656287556
0.000656277657
0.000656269271
0.000656262346
0.000656256815
0.000656252591
0.000656249579
0.000656247671
0.000656246756
0.000656246726
0.000656247467
0.000656248875
0.000656250853
0.000656253303
0.000656256141
0.000656259292
0.000656262682
0.000656266253
0.000656269947
0.000656273723
0.000656277536
0.000656281352
0.000656285148
0.000656288894
0.000656292574
0.000656296174
0.00065629968
0.000656303081
0.000656306374
0.000656309299
0.00065631005
0.000656309936
0.000656310021
0.000656310282
0.000656310702
0.000656311258
0.000656311937
0.000656312722
0.000656313602
0.000656314562
0.000656315595
0.000656316686
0.000656317827
0.000656319009
0.000656320227
0.000656321471
0.000656322734
0.000656324014
0.000656325303
0.000656326596
0.000656327893
0.000656329185
0.000656330471
0.000656331751
0.000656333018
0.000656334272
0.00065633551
0.000656336734
0.000656337937
0.000656339123
0.000656340288
0.000656341431
0.00065634255
0.000656343649
0.000656344724
0.000656345773
0.000656346801
0.000656347803
0.00065634878
0.000656349734
0.000656350663
0.000656351566
0.000656352447
0.000656353302
0.000656354132
0.000656354938
0.000656355721
0.00065635648
0.000656357214
0.000656357926
0.000656358614
0.000656359278
0.000656359921
0.000656360547
0.000656361114
0.000656374678
0.000656331246
0.000656331674
0.000656320093
0.000656310735
0.000656304613
0.000656302451
0.00065630456
0.000656310758
0.00065632045
0.000656332887
0.000656347316
0.000656362939
0.000656378685
0.000656393126
0.000656404631
0.000656411763
0.000656413715
0.00065641059
0.000656403369
0.000656393714
0.000656383569
0.000656374789
0.00065636884
0.000656366661
0.000656368642
0.000656374682
0.000656384316
0.000656396818
0.000656411278
0.00065642662
0.000656441612
0.000656454901
0.000656465121
0.000656467908
0.000656463055
0.000656462661
0.000656459573
0.000656448262
0.000656435974
0.000656424665
0.000656415899
0.000656410515
0.000656408508
0.000656409164
0.000656411379
0.000656414043
0.000656416347
0.000656417923
0.000656418804
0.000656419267
0.000656419657
0.000656420261
0.000656421255
0.000656422725
0.000656424712
0.000656427249
0.000656430382
0.00065643417
0.000656438669
0.000656443928
0.000656449978
0.000656456833
0.000656464492
0.000656472938
0.000656482142
0.000656492063
0.000656502655
0.000656513854
0.000656525595
0.000656537809
0.000656550419
0.000656563347
0.000656576522
0.000656589864
0.000656603299
0.000656616757
0.000656630161
0.000656643434
0.000656656504
0.00065666928
0.000656681673
0.000656684623
0.000656674735
0.000656663376
0.000656650521
0.000656636167
0.000656620328
0.000656603051
0.000656584408
0.000656564512
0.000656543508
0.000656521584
0.000656498955
0.000656475869
0.000656452599
0.000656429427
0.000656406641
0.000656384529
0.000656363351
0.00065634335
0.000656324735
0.000656307669
0.000656292278
0.00065627864
0.000656266796
0.000656256736
0.000656248427
0.000656241794
0.000656236744
0.000656233162
0.000656230927
0.000656229899
0.000656229943
0.000656230926
0.000656232714
0.000656235182
0.000656238217
0.000656241709
0.00065624556
0.000656249689
0.000656254015
0.000656258473
0.000656263005
0.000656267566
0.000656272112
0.000656276609
0.000656281033
0.000656285358
0.000656289568
0.000656293652
0.000656297597
0.000656301399
0.000656305054
0.000656306463
0.000656306321
0.000656306399
0.000656306669
0.000656307109
0.000656307701
0.000656308424
0.000656309262
0.000656310199
0.000656311224
0.00065631232
0.000656313481
0.000656314693
0.000656315949
0.000656317238
0.000656318558
0.000656319898
0.000656321251
0.000656322617
0.000656323986
0.000656325354
0.000656326721
0.000656328081
0.00065632943
0.000656330769
0.000656332093
0.000656333401
0.00065633469
0.000656335961
0.00065633721
0.00065633844
0.000656339646
0.000656340829
0.000656341986
0.000656343122
0.000656344232
0.000656345316
0.000656346377
0.000656347411
0.000656348419
0.000656349403
0.000656350361
0.000656351291
0.000656352199
0.00065635308
0.000656353937
0.000656354767
0.000656355574
0.000656356357
0.000656357113
0.000656357849
0.000656358559
0.000656359245
0.00065635991
0.000656360558
0.000656361145
0.000656374746
0.000656330694
0.000656329853
0.000656316955
0.000656306359
0.000656299196
0.000656296288
0.000656298014
0.000656304217
0.000656314285
0.000656327422
0.000656342823
0.000656359619
0.000656376641
0.000656392324
0.000656404878
0.000656412714
0.00065641491
0.000656411541
0.000656403647
0.000656393005
0.000656381723
0.000656371827
0.000656364937
0.000656362109
0.000656363807
0.000656369958
0.000656380091
0.000656393439
0.000656409026
0.000656425682
0.000656442061
0.000656456676
0.000656468011
0.000656468017
0.000656462385
0.000656461632
0.000656462729
0.000656450391
0.000656436846
0.000656424231
0.000656414274
0.000656407928
0.000656405223
0.000656405412
0.000656407303
0.000656409685
0.000656411665
0.000656412826
0.000656413195
0.000656413073
0.000656412842
0.000656412824
0.000656413223
0.000656414146
0.000656415644