/*--------------------------------*- C++ -*----------------------------------*\
| =========                 |                                                 |
| \\      /  F ield         | OpenFOAM: The Open Source CFD Toolbox           |
|  \\    /   O peration     | Version:  v2012                                 |
|   \\  /    A nd           | Website:  www.openfoam.com                      |
|    \\/     M anipulation  |                                                 |
\*---------------------------------------------------------------------------*/
FoamFile
{
    version     2.0;
    format      ascii;
    class       surfaceVectorField;
    location    "2.39";
    object      Uf;
}
// * * * * * * * * * * * * * * * * * * * * * * * * * * * * * * * * * * * * * //

dimensions      [0 1 -1 0 0 0 0];


internalField   nonuniform List<vector> 
56481
(
(0.0999902371 2.9527788e-05 0)
(0.0999983889 2.31613518e-05 0)
(0.0999638814 6.17353366e-05 0)
(0.0999834716 7.17430454e-05 0)
(0.0999216971 9.3995004e-05 0)
(0.0999513045 0.000121854519 0)
(0.0998655532 0.000122653832 0)
(0.0999020164 0.000168265697 0)
(0.0997982059 0.000144626275 0)
(0.0998388284 0.000206447167 0)
(0.0997230322 0.000157747105 0)
(0.0997654535 0.000232971595 0)
(0.0996437527 0.000161056961 0)
(0.0996855654 0.000245781152 0)
(0.099564049 0.000154900168 0)
(0.0996030222 0.000244634071 0)
(0.0994872426 0.000140508746 0)
(0.0995216706 0.000230884165 0)
(0.0994162078 0.000119404146 0)
(0.0994449719 0.00020653038 0)
(0.0993534395 9.32606145e-05 0)
(0.0993759178 0.00017354539 0)
(0.0993010363 6.43531942e-05 0)
(0.0993171081 0.000134210442 0)
(0.0992604655 3.60159995e-05 0)
(0.0992706102 9.20316482e-05 0)
(0.0992322258 1.24080635e-05 0)
(0.0992374759 5.21489513e-05 0)
(0.0992157792 -2.64964614e-06 0)
(0.0992170892 2.05404821e-05 0)
(0.099205265 -6.31534901e-06 0)
(0.099205732 2.00771923e-06 0)
(0.0991962112 3.0387004e-06 0)
(0.0991984137 3.49785921e-06 0)
(0.0991821733 2.50430076e-05 0)
(0.0991904705 2.52767021e-05 0)
(0.0991584804 5.71989328e-05 0)
(0.0991767949 6.259251e-05 0)
(0.0991238211 9.57990435e-05 0)
(0.0991526745 0.000110495351 0)
(0.0990779346 0.00013647544 0)
(0.0991154495 0.000163499132 0)
(0.0990219175 0.000174486492 0)
(0.0990654041 0.00021523842 0)
(0.098957975 0.000205677903 0)
(0.0990045027 0.000259705626 0)
(0.098888913 0.000227175955 0)
(0.098935467 0.000292562949 0)
(0.0988177778 0.000237452658 0)
(0.0988616047 0.000311311417 0)
(0.0987476077 0.000236200785 0)
(0.0987865558 0.00031504235 0)
(0.0986812389 0.000224230196 0)
(0.0987138666 0.000304241094 0)
(0.0986211738 0.000203352047 0)
(0.0986467228 0.000280609932 0)
(0.0985694681 0.000176252916 0)
(0.0985878466 0.000246916043 0)
(0.0985275758 0.000146379649 0)
(0.098539378 0.000206920456 0)
(0.098496135 0.000117786019 0)
(0.0985026709 0.000165334326 0)
(0.0984747516 9.48420214e-05 0)
(0.098478039 0.000127642593 0)
(0.0984619373 8.17337588e-05 0)
(0.098464529 9.96260463e-05 0)
(0.0984552535 8.17449813e-05 0)
(0.0984598724 8.65069437e-05 0)
(0.0984509216 9.65741947e-05 0)
(0.0984605209 9.1785464e-05 0)
(0.098445182 0.000125848893 0)
(0.0984620594 0.000116535528 0)
(0.0984347219 0.000166955907 0)
(0.0984600509 0.000158830002 0)
(0.0984171754 0.000215447316 0)
(0.0984508291 0.000213854737 0)
(0.0983915161 0.000265973709 0)
(0.0984321414 0.000274851117 0)
(0.098358138 0.000313466711 0)
(0.0984034989 0.000334640659 0)
(0.0983185832 0.000354215807 0)
(0.0983661033 0.000387259938 0)
(0.0982750152 0.000386514894 0)
(0.0983223622 0.000429184933 0)
(0.0982296113 0.000410698007 0)
(0.0982751471 0.000459784067 0)
(0.0981840576 0.000428605007 0)
(0.0982270326 0.000480907881 0)
(0.0981392805 0.000442720035 0)
(0.0981797504 0.000495835854 0)
(0.0980954492 0.000455318344 0)
(0.0981339926 0.000508017874 0)
(0.0980521856 0.000467903514 0)
(0.0980895569 0.000520069267 0)
(0.0980088611 0.000481054274 0)
(0.0980457056 0.000533306253 0)
(0.097964859 0.000494617103 0)
(0.0980015637 0.000547842773 0)
(0.0979197271 0.000508064551 0)
(0.0979564095 0.000563046286 0)
(0.0978732121 0.000520829017 0)
(0.0979097974 0.000578065254 0)
(0.0978252131 0.000532495821 0)
(0.097861534 0.000592203092 0)
(0.0977757081 0.000542839967 0)
(0.0978115805 0.000605055069 0)
(0.0977246984 0.000551762744 0)
(0.0977599543 0.000616455864 0)
(0.097672185 0.000559203499 0)
(0.0977066711 0.000626347301 0)
(0.0976181731 0.000565079011 0)
(0.0976517346 0.000634663342 0)
(0.0975626884 0.000569265593 0)
(0.0975951544 0.000641277202 0)
(0.0975057936 0.000571611646 0)
(0.0975369705 0.000646005167 0)
(0.0974475963 0.000571959987 0)
(0.0974772703 0.00064863746 0)
(0.0973882515 0.000570165157 0)
(0.0974161936 0.0006489685 0)
(0.0973279585 0.000566101183 0)
(0.0973539314 0.000646813728 0)
(0.0972669587 0.000559662346 0)
(0.0972907205 0.000642013689 0)
(0.0972055324 0.000550761415 0)
(0.0972268396 0.000634432026 0)
(0.0971439964 0.000539328341 0)
(0.0971626062 0.000623953176 0)
(0.0970827011 0.000525310267 0)
(0.0970983737 0.00061048209 0)
(0.0970220266 0.0005086725 0)
(0.0970345282 0.000593945704 0)
(0.096962379 0.000489399946 0)
(0.0969714847 0.000574294948 0)
(0.0969041853 0.00046749884 0)
(0.0969096826 0.000551506505 0)
(0.0968478898 0.000442998655 0)
(0.0968495815 0.000525584061 0)
(0.0967939507 0.000415953997 0)
(0.0967916575 0.000496559133 0)
(0.096742839 0.000386446048 0)
(0.0967364003 0.000464491459 0)
(0.0966950374 0.000354582784 0)
(0.0966843112 0.000429468648 0)
(0.0966510412 0.000320497579 0)
(0.0966359021 0.000391604732 0)
(0.0966113582 0.000284345164 0)
(0.0965916936 0.000351037422 0)
(0.0965765111 0.000246295437 0)
(0.096552214 0.000307920178 0)
(0.0965470529 0.000206519898 0)
(0.0965179959 0.000262402131 0)
(0.0965235144 0.000165170646 0)
(0.0964895683 0.000214685524 0)
(0.096506347 0.000122380781 0)
(0.0964674369 0.000164994503 0)
(0.0964959011 7.82935933e-05 0)
(0.0964520553 0.000113542857 0)
(0.0964923774 3.31822595e-05 0)
(0.0964438115 6.06093593e-05 0)
(0.0964957698 -1.23047713e-05 0)
(0.0964430885 6.74835971e-06 0)
(0.0965079306 -5.79169084e-05 0)
(0.0964504898 -4.84376936e-05 0)
(0.096528742 -0.000103889274 0)
(0.0964666375 -0.000103941985 0)
(0.0965583318 -0.000150114261 0)
(0.0964917599 -0.000159973055 0)
(0.0965967565 -0.000196307152 0)
(0.0965259241 -0.000216165175 0)
(0.0966440573 -0.000242181601 0)
(0.0965692519 -0.000272187284 0)
(0.0967002137 -0.000287442993 0)
(0.0966217951 -0.000327686912 0)
(0.0967651196 -0.000331775805 0)
(0.0966834968 -0.000382268854 0)
(0.0968385808 -0.000374851808 0)
(0.0967542164 -0.000435516778 0)
(0.0969203131 -0.000416333334 0)
(0.096833724 -0.000487002532 0)
(0.0970099409 -0.000455873668 0)
(0.0969216892 -0.000536288132 0)
(0.0971070026 -0.000493122259 0)
(0.0970176849 -0.000582932876 0)
(0.0972109571 -0.000527734516 0)
(0.0971211937 -0.000626504355 0)
(0.0973211923 -0.000559384268 0)
(0.0972316148 -0.000666590847 0)
(0.0974370331 -0.000587776943 0)
(0.097348271 -0.000702814419 0)
(0.0975577494 -0.000612661312 0)
(0.0974704177 -0.000734843545 0)
(0.097682564 -0.000633838176 0)
(0.0975972519 -0.000762403766 0)
(0.0978106625 -0.000651165373 0)
(0.0977279227 -0.000785285571 0)
(0.0979412034 -0.000664559553 0)
(0.0978615429 -0.000803349313 0)
(0.0980733312 -0.000673995698 0)
(0.0979972034 -0.000816527453 0)
(0.0982061897 -0.000679505212 0)
(0.0981339879 -0.000824824523 0)
(0.0983389364 -0.000681173066 0)
(0.0982709886 -0.000828315121 0)
(0.0984707556 -0.000679134164 0)
(0.098407322 -0.000827140176 0)
(0.0986008713 -0.000673568835 0)
(0.0985421429 -0.00082150165 0)
(0.0987285577 -0.000664697415 0)
(0.0986746572 -0.000811655818 0)
(0.0988531477 -0.000652774008 0)
(0.0988041323 -0.000797905386 0)
(0.0989740403 -0.000638079577 0)
(0.0989299056 -0.000780590745 0)
(0.0990907047 -0.000620914721 0)
(0.0990513903 -0.000760080732 0)
(0.0992026835 -0.000601592383 0)
(0.0991680793 -0.00073676329 0)
(0.0993095937 -0.000580430835 0)
(0.0992795464 -0.000711036358 0)
(0.0994111257 -0.000557747144 0)
(0.0993854466 -0.000683299314 0)
(0.099507041 -0.000533851341 0)
(0.0994855129 -0.000653945202 0)
(0.0995971677 -0.000509041264 0)
(0.099579553 -0.000623353824 0)
(0.0996813944 -0.000483597778 0)
(0.0996674431 -0.000591885543 0)
(0.0997596603 -0.000457780026 0)
(0.0997491218 -0.000559874899 0)
(0.0998319374 -0.000431817792 0)
(0.0998245797 -0.000527623475 0)
(0.0998982617 -0.000405903658 0)
(0.0998938566 -0.000495386005 0)
(0.0999587837 -0.000380202362 0)
(0.0999570634 -0.000463368464 0)
(0.100013687 -0.000354865749 0)
(0.100014383 -0.000431766548 0)
(0.100063178 -0.000330032807 0)
(0.100066032 -0.000400763448 0)
(0.10010748 -0.000305825131 0)
(0.100112248 -0.00037051953 0)
(0.100146829 -0.000282345059 0)
(0.100153277 -0.000341169317 0)
(0.100181468 -0.000259674994 0)
(0.100189381 -0.00031282077 0)
(0.100211637 -0.000237874595 0)
(0.100220828 -0.000285552643 0)
(0.100237586 -0.000216980081 0)
(0.100247889 -0.000259434224 0)
(0.100259581 -0.00019701025 0)
(0.100270841 -0.000234516458 0)
(0.10027789 -0.000177972954 0)
(0.100289959 -0.000210817025 0)
(0.100292779 -0.000159867909 0)
(0.100305523 -0.000188338927 0)
(0.100304513 -0.000142687934 0)
(0.100317805 -0.00016707381 0)
(0.100313348 -0.000126420001 0)
(0.100327073 -0.000147004109 0)
(0.100319534 -0.000111045894 0)
(0.100333586 -0.00012810463 0)
(0.100323307 -9.65411588e-05 0)
(0.100337596 -0.000110342791 0)
(0.100324891 -8.28726407e-05 0)
(0.100339343 -9.36764434e-05 0)
(0.100324498 -6.99965323e-05 0)
(0.100339057 -7.80560491e-05 0)
(0.100322333 -5.78583095e-05 0)
(0.100336959 -6.34288406e-05 0)
(0.100318615 -4.63977513e-05 0)
(0.100333267 -4.97441677e-05 0)
(0.10031359 -3.55653153e-05 0)
(0.100328196 -3.6964592e-05 0)
(0.10030755 -2.53541633e-05 0)
(0.100321961 -2.50857404e-05 0)
(0.100300843 -1.58723088e-05 0)
(0.100314737 -1.4172872e-05 0)
(0.100293821 -7.35010358e-06 0)
(0.100306726 -4.38768922e-06 0)
(0.100286311 3.01091087e-08 0)
(0.100298124 4.64852338e-06 0)
(0.100277783 6.29780129e-06 0)
(0.100288925 1.27335127e-05 0)
(0.100268084 1.1666971e-05 0)
(0.100278955 1.95232597e-05 0)
(0.10025747 1.63708448e-05 0)
(0.100268114 2.53903149e-05 0)
(0.100246103 2.05508958e-05 0)
(0.100256495 3.05529099e-05 0)
(0.100234121 2.42804713e-05 0)
(0.100244273 3.51122872e-05 0)
(0.100221643 2.76145753e-05 0)
(0.10023158 3.91348636e-05 0)
(0.100208776 3.06026183e-05 0)
(0.100218508 4.2683075e-05 0)
(0.100195618 3.32845838e-05 0)
(0.100205144 4.58100217e-05 0)
(0.100182258 3.56905764e-05 0)
(0.100191568 4.85580876e-05 0)
(0.100168772 3.78424039e-05 0)
(0.100177855 5.09625263e-05 0)
(0.10015523 3.97547102e-05 0)
(0.100164069 5.30522294e-05 0)
(0.100141688 4.14370654e-05 0)
(0.100150268 5.48500268e-05 0)
(0.100128193 4.28969016e-05 0)
(0.100136501 5.63746677e-05 0)
(0.100114781 4.41418087e-05 0)
(0.10012281 5.76428409e-05 0)
(0.100101482 4.51807125e-05 0)
(0.100109228 5.86702715e-05 0)
(0.10008832 4.60242754e-05 0)
(0.100095783 5.94722981e-05 0)
(0.100075315 4.66848088e-05 0)
(0.100082499 6.00642499e-05 0)
(0.100062486 4.71758562e-05 0)
(0.100069395 6.04616075e-05 0)
(0.100049847 4.75116147e-05 0)
(0.10005649 6.0679924e-05 0)
(0.100037414 4.77063443e-05 0)
(0.100043798 6.07345822e-05 0)
(0.1000252 4.77738489e-05 0)
(0.100031333 6.06405019e-05 0)
(0.100013218 4.77270511e-05 0)
(0.100019108 6.04118661e-05 0)
(0.100001481 4.75776845e-05 0)
(0.100007134 6.0061892e-05 0)
(0.0999899999 4.73361215e-05 0)
(0.0999954216 5.9602662e-05 0)
(0.0999787847 4.7011338e-05 0)
(0.0999839802 5.90450361e-05 0)
(0.0999678442 4.66109875e-05 0)
(0.0999728178 5.83986471e-05 0)
(0.0999571859 4.61415536e-05 0)
(0.0999619416 5.76719669e-05 0)
(0.0999468161 4.56085549e-05 0)
(0.0999513573 5.68724266e-05 0)
(0.0999367396 4.5016777e-05 0)
(0.0999410698 5.6006574e-05 0)
(0.0999269599 4.43705046e-05 0)
(0.0999310826 5.50802448e-05 0)
(0.0999174795 4.36737278e-05 0)
(0.0999213983 5.40987295e-05 0)
(0.0999083002 4.29303036e-05 0)
(0.0999120188 5.30669184e-05 0)
(0.0998994226 4.214406e-05 0)
(0.099902945 5.19894137e-05 0)
(0.0998908473 4.13188448e-05 0)
(0.0998941775 5.08706033e-05 0)
(0.0998825743 4.0458522e-05 0)
(0.0998857164 4.97146978e-05 0)
(0.0998746035 3.95669271e-05 0)
(0.0998775616 4.85257316e-05 0)
(0.099866935 3.86477968e-05 0)
(0.0998697129 4.73075395e-05 0)
(0.0998595687 3.77046845e-05 0)
(0.09986217 4.60637171e-05 0)
(0.0998525049 3.67408813e-05 0)
(0.0998549329 4.47975712e-05 0)
(0.099845744 3.57593483e-05 0)
(0.0998480015 4.3512072e-05 0)
(0.0998392867 3.47626833e-05 0)
(0.0998413759 4.2209795e-05 0)
(0.099833134 3.37530168e-05 0)
(0.099835057 4.08928987e-05 0)
(0.0998272877 3.27322071e-05 0)
(0.0998290437 3.95628707e-05 0)
(0.0998217498 3.17005055e-05 0)
(0.0998233443 3.82211103e-05 0)
(0.0998165243 3.06617302e-05 0)
(0.0998179358 3.68651137e-05 0)
(0.0998116159 2.95969228e-05 0)
(0.0998129092 3.55038767e-05 0)
(0.0998070415 2.85807037e-05 0)
(0.099807969 3.40791827e-05 0)
(0.0998027937 2.72242016e-05 0)
(0.0998042216 3.28224995e-05 0)
(0.0997981355 3.05320723e-05 0)
(0.0999937414 6.00715152e-05 0)
(0.0999985841 3.0368216e-05 0)
(0.0999705875 0.000123775538 0)
(0.0999846953 9.84051643e-05 0)
(0.099930496 0.000185858355 0)
(0.0999536759 0.000168020421 0)
(0.0998748449 0.00024020212 0)
(0.0999050302 0.00023234877 0)
(0.0998061734 0.000281864825 0)
(0.0998417532 0.000285523432 0)
(0.0997280765 0.000307449424 0)
(0.0997676108 0.000322901378 0)
(0.0996447717 0.000315578236 0)
(0.0996864053 0.000341707862 0)
(0.0995605377 0.000306982367 0)
(0.0996021495 0.000341630806 0)
(0.0994793057 0.000283735407 0)
(0.0995188909 0.000324424028 0)
(0.09940455 0.000248251791 0)
(0.0994403208 0.000292612644 0)
(0.0993393417 0.00020310344 0)
(0.0993696471 0.000248633789 0)
(0.0992862549 0.000151827098 0)
(0.0993096374 0.000195340723 0)
(0.0992469262 9.98028574e-05 0)
(0.0992624414 0.000137319233 0)
(0.0992213173 5.41256784e-05 0)
(0.0992290646 8.16379382e-05 0)
(0.0992069853 2.21809203e-05 0)
(0.0992087007 3.70440481e-05 0)
(0.0991986964 1.03487825e-05 0)
(0.0991982474 1.15525102e-05 0)
(0.0991929937 2.20673001e-05 0)
(0.0991930715 1.00645377e-05 0)
(0.0991859379 5.61155388e-05 0)
(0.0991877051 3.34016014e-05 0)
(0.0991710616 0.0001073072 0)
(0.0991765004 7.97228414e-05 0)
(0.0991437347 0.000168479495 0)
(0.0991549676 0.000141962684 0)
(0.0991023968 0.000231876171 0)
(0.0991203699 0.000211100329 0)
(0.099047647 0.00028987202 0)
(0.0990721007 0.000278283555 0)
(0.0989816282 0.000336190421 0)
(0.0990116082 0.000335727363 0)
(0.0989077072 0.000366716342 0)
(0.098941699 0.00037768402 0)
(0.0988299052 0.000379496148 0)
(0.0988659538 0.000400901586 0)
(0.0987523362 0.000374393572 0)
(0.0987883326 0.00040436422 0)
(0.0986788614 0.000352769667 0)
(0.0987127824 0.000388848428 0)
(0.0986128924 0.000317263369 0)
(0.0986429284 0.00035657428 0)
(0.09855724 0.000271691118 0)
(0.0985818981 0.000311000588 0)
(0.0985139384 0.000221035609 0)
(0.0985321737 0.000256782907 0)
(0.098484009 0.000171372435 0)
(0.0984953801 0.000199798527 0)
(0.0984671967 0.000129515622 0)
(0.0984720117 0.000147002225 0)
(0.0984617783 0.000102230298 0)
(0.0984611715 0.000105865335 0)
(0.0984645546 9.50151633e-05 0)
(0.0984604367 8.33100452e-05 0)
(0.0984710688 0.00011084496 0)
(0.0984659546 8.42842604e-05 0)
(0.0984762954 0.000149255009 0)
(0.0984728902 0.000110517027 0)
(0.0984755078 0.000206082045 0)
(0.0984762335 0.000159736855 0)
(0.0984651565 0.000274179788 0)
(0.0984717235 0.000225774468 0)
(0.0984435127 0.000344977964 0)
(0.0984566248 0.000299774279 0)
(0.0984108866 0.000410434519 0)
(0.0984301716 0.000372210116 0)
(0.0983693429 0.000464792945 0)
(0.0983935495 0.000435098167 0)
(0.0983219955 0.000505606787 0)
(0.098349403 0.000483706133 0)
(0.0982721115 0.000533747569 0)
(0.098301013 0.00051722621 0)
(0.0982223102 0.000552481725 0)
(0.0982514107 0.000538254824 0)
(0.0981740896 0.000566028813 0)
(0.0982027056 0.000551362637 0)
(0.0981277715 0.000578157587 0)
(0.0981558068 0.000561353853 0)
(0.0980827951 0.000591281869 0)
(0.0981105521 0.000571860303 0)
(0.0980381765 0.000606245497 0)
(0.0980661093 0.000584685182 0)
(0.0979929358 0.000622680461 0)
(0.0980214457 0.000599938156 0)
(0.0979463569 0.000639629937 0)
(0.0979756864 0.000616682576 0)
(0.097898053 0.000656114578 0)
(0.0979282758 0.000633687909 0)
(0.0978478922 0.00067144958 0)
(0.0978789629 0.000649963974 0)
(0.0977958741 0.000685292216 0)
(0.09782769 0.000664954693 0)
(0.0977420299 0.000697520714 0)
(0.0977744741 0.000678458338 0)
(0.0976863774 0.000708075517 0)
(0.097719334 0.000690432029 0)
(0.0976289242 0.000716852264 0)
(0.0976622735 0.000700821547 0)
(0.0975696935 0.000723670698 0)
(0.0976033003 0.000709482157 0)
(0.0975087497 0.000728296726 0)
(0.0975424548 0.000716182891 0)
(0.0974462117 0.000730481069 0)
(0.0974798298 0.000720650932 0)
(0.0973822551 0.00072998883 0)
(0.0974155777 0.000722615467 0)
(0.0973171077 0.000726612429 0)
(0.0973499079 0.00072183192 0)
(0.0972510436 0.000720172672 0)
(0.0972830808 0.000718087524 0)
(0.0971843785 0.000710515892 0)
(0.0972154024 0.000711197966 0)
(0.0971174662 0.000697512338 0)
(0.0971472202 0.000701003648 0)
(0.0970506959 0.000681057033 0)
(0.0970789195 0.00068736904 0)
(0.0969844885 0.000661072005 0)
(0.0970109205 0.000670184572 0)
(0.0969192924 0.000637508425 0)
(0.0969436734 0.000649369217 0)
(0.0968555798 0.000610347895 0)
(0.0968776538 0.000624872475 0)
(0.0967938426 0.000579602689 0)
(0.0968133578 0.000596675455 0)
(0.0967345884 0.000545315162 0)
(0.096751298 0.000564791242 0)
(0.0966783378 0.000507556649 0)
(0.0966919997 0.000529264784 0)
(0.0966256216 0.000466425859 0)
(0.0966359983 0.000490172179 0)
(0.0965769775 0.000422046869 0)
(0.0965838368 0.00044761917 0)
(0.0965329474 0.000374566421 0)
(0.096536064 0.000401738781 0)
(0.0964940693 0.000324150494 0)
(0.096493231 0.000352688832 0)
(0.0964608529 0.000270977791 0)
(0.0964558852 0.000300651366 0)
(0.096433801 0.000215231203 0)
(0.096424561 0.000245836204 0)
(0.0964134112 0.000157108126 0)
(0.0963997817 0.000188473644 0)
(0.0964001858 9.68655174e-05 0)
(0.0963820671 0.000128772084 0)
(0.0963947212 3.4871014e-05 0)
(0.0963719129 6.69019432e-05 0)
(0.0963979347 -2.84104142e-05 0)
(0.0963697748 3.04798574e-06 0)
(0.0964093405 -9.26086182e-05 0)
(0.0963761222 -6.15716882e-05 0)
(0.0964297745 -0.000157510147 0)
(0.0963914072 -0.000127471985 0)
(0.0964594147 -0.000222826983 0)
(0.0964159702 -0.000194104187 0)
(0.0964984619 -0.000288155197 0)
(0.0964500346 -0.000261128721 0)
(0.0965470152 -0.000353074907 0)
(0.0964937534 -0.000328097129 0)
(0.0966050801 -0.000417140512 0)
(0.0965472104 -0.000394549441 0)
(0.096672577 -0.000479869666 0)
(0.0966103894 -0.00045999254 0)
(0.0967493302 -0.000540756466 0)
(0.0966831745 -0.000523899249 0)
(0.096835061 -0.000599283557 0)
(0.0967653493 -0.000585722899 0)
(0.0969293879 -0.000654931314 0)
(0.0968565897 -0.000644906933 0)
(0.0970318288 -0.000707189642 0)
(0.0969564634 -0.000700895086 0)
(0.0971418061 -0.000755571105 0)
(0.0970644332 -0.000753144887 0)
(0.0972586534 -0.000799623814 0)
(0.097179862 -0.000801142333 0)
(0.0973816239 -0.000838943642 0)
(0.09730202 -0.000844416724 0)
(0.0975098995 -0.00087318536 0)
(0.0974300936 -0.000882554869 0)
(0.0976426028 -0.000902072244 0)
(0.097563197 -0.000915213624 0)
(0.0977788098 -0.00092540364 0)
(0.0977003864 -0.000942129928 0)
(0.0979175648 -0.000943060139 0)
(0.0978406756 -0.000963127851 0)
(0.0980578974 -0.000955006167 0)
(0.0979830534 -0.000978122515 0)
(0.098198839 -0.000961289824 0)
(0.0981265027 -0.000987120934 0)
(0.0983394406 -0.000962040025 0)
(0.0982700189 -0.000990219904 0)
(0.0984787883 -0.000957461223 0)
(0.098412628 -0.000987601213 0)
(0.0986160187 -0.00094782607 0)
(0.0985534032 -0.000979524488 0)
(0.0987503306 -0.000933466444 0)
(0.0986914797 -0.000966318042 0)
(0.0988809957 -0.000914763342 0)
(0.0988260661 -0.000948368221 0)
(0.0990073657 -0.000892136036 0)
(0.0989564538 -0.000926107696 0)
(0.0991288774 -0.000866031028 0)
(0.0990820236 -0.000900003277 0)
(0.0992450552 -0.000836911119 0)
(0.0992022489 -0.000870543707 0)
(0.099355511 -0.000805245024 0)
(0.0993166968 -0.000838227908 0)
(0.0994599427 -0.000771497746 0)
(0.0994250269 -0.000803554014 0)
(0.0995581302 -0.000736121964 0)
(0.0995269874 -0.000767009485 0)
(0.0996499297 -0.000699550362 0)
(0.0996224101 -0.000729062408 0)
(0.0997352681 -0.000662188557 0)
(0.0997112041 -0.000690153953 0)
(0.0998141354 -0.00062440835 0)
(0.0997933482 -0.000650691832 0)
(0.0998865805 -0.000586538597 0)
(0.0998688844 -0.000611045042 0)
(0.0999527124 -0.000548857415 0)
(0.0999379127 -0.00057153789 0)
(0.100012702 -0.000511604552 0)
(0.10000059 -0.000532447522 0)
(0.100066761 -0.000474998997 0)
(0.100057124 -0.000494016299 0)
(0.100115128 -0.000439238318 0)
(0.100107759 -0.000456459114 0)
(0.100158064 -0.000404492701 0)
(0.100152762 -0.000419960248 0)
(0.100195842 -0.000370902785 0)
(0.100192417 -0.000384671631 0)
(0.100228749 -0.000338579479 0)
(0.100227021 -0.000350713928 0)
(0.100257083 -0.000307602874 0)
(0.100256876 -0.000318178918 0)
(0.100281138 -0.000278023249 0)
(0.100282289 -0.000287134429 0)
(0.100301204 -0.000249866991 0)
(0.100303563 -0.000257623111 0)
(0.10031757 -0.000223142975 0)
(0.100320997 -0.000229662189 0)
(0.100330519 -0.000197846246 0)
(0.100334884 -0.000203249965 0)
(0.100340329 -0.000173960128 0)
(0.100345511 -0.00017837032 0)
(0.100347269 -0.000151457929 0)
(0.100353157 -0.000154995892 0)
(0.1003516 -0.000130304655 0)
(0.100358091 -0.000133091571 0)
(0.100353577 -0.000110459248 0)
(0.100360571 -0.000112619423 0)
(0.100353448 -9.18760814e-05 0)
(0.100360842 -9.35280683e-05 0)
(0.100351451 -7.45049442e-05 0)
(0.100359142 -7.5756337e-05 0)
(0.100347816 -5.82924606e-05 0)
(0.100355693 -5.92428844e-05 0)
(0.10034276 -4.31878337e-05 0)
(0.100350711 -4.39225307e-05 0)
(0.100336473 -2.91546098e-05 0)
(0.100344395 -2.97248579e-05 0)
(0.100329076 -1.61917051e-05 0)
(0.100336918 -1.65675272e-05 0)
(0.100320491 -4.29310415e-06 0)
(0.100328461 -4.28742595e-06 0)
(0.10031095 6.47930973e-06 0)
(0.100319147 6.59858498e-06 0)
(0.100300854 1.59816552e-05 0)
(0.100309078 1.62752305e-05 0)
(0.10029025 2.41873755e-05 0)
(0.100298382 2.49435215e-05 0)
(0.100278964 3.12552136e-05 0)
(0.100287099 3.25190946e-05 0)
(0.100267046 3.74132554e-05 0)
(0.100275208 3.91147629e-05 0)
(0.100254589 4.2825684e-05 0)
(0.100262729 4.48970583e-05 0)
(0.10024168 4.75841052e-05 0)
(0.100249752 4.9976705e-05 0)
(0.100228403 5.17551159e-05 0)
(0.100236381 5.44244371e-05 0)
(0.100214836 5.53995234e-05 0)
(0.100222702 5.83051318e-05 0)
(0.100201055 5.85702151e-05 0)
(0.100208791 6.16788239e-05 0)
(0.100187128 6.13126523e-05 0)
(0.100194722 6.45959707e-05 0)
(0.100173114 6.3666995e-05 0)
(0.100180561 6.70988612e-05 0)
(0.100159071 6.56679926e-05 0)
(0.100166367 6.9223191e-05 0)
(0.100145047 6.73450025e-05 0)
(0.100152193 7.09988189e-05 0)
(0.100131086 6.87232103e-05 0)
(0.100138083 7.24513244e-05 0)
(0.100117225 6.98248692e-05 0)
(0.100124073 7.36038177e-05 0)
(0.100103497 7.06700641e-05 0)
(0.100110196 7.44780743e-05 0)
(0.10008993 7.12773117e-05 0)
(0.100096477 7.50950221e-05 0)
(0.100076547 7.16641315e-05 0)
(0.100082938 7.54749302e-05 0)
(0.100063368 7.18474524e-05 0)
(0.1000696 7.56374558e-05 0)
(0.10005041 7.18437531e-05 0)
(0.10005648 7.56015709e-05 0)
(0.100037687 7.16689998e-05 0)
(0.10004359 7.53854128e-05 0)
(0.100025211 7.13385086e-05 0)
(0.100030946 7.50061218e-05 0)
(0.100012995 7.08668013e-05 0)
(0.100018558 7.44796975e-05 0)
(0.100001046 7.02674698e-05 0)
(0.100006437 7.38208798e-05 0)
(0.0999893741 6.95530672e-05 0)
(0.0999945926 7.30430794e-05 0)
(0.0999779862 6.87350483e-05 0)
(0.0999830318 7.21583744e-05 0)
(0.0999668887 6.78237679e-05 0)
(0.0999717621 7.11775635e-05 0)
(0.099956087 6.68285276e-05 0)
(0.0999607892 7.01102575e-05 0)
(0.0999455856 6.57576596e-05 0)
(0.0999501179 6.89649974e-05 0)
(0.0999353879 6.46186315e-05 0)
(0.0999397519 6.77493906e-05 0)
(0.0999254965 6.34181609e-05 0)
(0.099929694 6.64702554e-05 0)
(0.0999159135 6.21623315e-05 0)
(0.0999199461 6.51337641e-05 0)
(0.0999066399 6.08566961e-05 0)
(0.0999105093 6.37455686e-05 0)
(0.0998976765 5.95063627e-05 0)
(0.0999013842 6.23108999e-05 0)
(0.0998890235 5.81160607e-05 0)
(0.0998925708 6.08346386e-05 0)
(0.0998806809 5.66901826e-05 0)
(0.0998840688 5.93213536e-05 0)
(0.0998726484 5.52328035e-05 0)
(0.0998758779 5.77753152e-05 0)
(0.0998649256 5.37476863e-05 0)
(0.0998679974 5.62004883e-05 0)
(0.099857512 5.22382671e-05 0)
(0.0998604267 5.46005075e-05 0)
(0.0998504074 5.07076316e-05 0)
(0.0998531652 5.2978637e-05 0)
(0.0998436115 4.91584724e-05 0)
(0.0998462126 5.13377293e-05 0)
(0.099837124 4.75930542e-05 0)
(0.0998395683 4.9680167e-05 0)
(0.0998309453 4.60130601e-05 0)
(0.0998332329 4.80078474e-05 0)
(0.0998250756 4.44197908e-05 0)
(0.0998272042 4.6321905e-05 0)
(0.0998195156 4.28123747e-05 0)
(0.0998214897 4.46234672e-05 0)
(0.0998142667 4.11947618e-05 0)
(0.0998160647 4.29093576e-05 0)
(0.0998093272 3.95395947e-05 0)
(0.0998110187 4.11918098e-05 0)
(0.0998047028 3.79565059e-05 0)
(0.0998060491 3.94042339e-05 0)
(0.0998003286 3.58862623e-05 0)
(0.0998022717 3.78594362e-05 0)
(0.0997961017 3.50934324e-05 0)
(0.0999920165 7.22639735e-05 0)
(0.0999985098 3.95613197e-05 0)
(0.0999677995 0.000148456299 0)
(0.0999843596 0.000126291434 0)
(0.0999271063 0.000222166135 0)
(0.0999532501 0.000214879295 0)
(0.0998714057 0.000286647662 0)
(0.0999046394 0.000296488861 0)
(0.0998032457 0.000336416134 0)
(0.0998412701 0.000364010636 0)
(0.0997260199 0.000367540618 0)
(0.0997667471 0.000411828119 0)
(0.0996436938 0.000378353565 0)
(0.0996848498 0.000436507576 0)
(0.0995603471 0.00036960613 0)
(0.0995996455 0.000437605777 0)
(0.0994797582 0.000343555416 0)
(0.0995152855 0.000417223435 0)
(0.0994052473 0.000302794906 0)
(0.0994355952 0.000378413078 0)
(0.099339696 0.000250068211 0)
(0.0993639135 0.000324117128 0)
(0.0992854837 0.000189264698 0)
(0.0993031085 0.000257766978 0)
(0.0992441673 0.000126555372 0)
(0.0992553988 0.000184895731 0)
(0.0992160377 7.04319768e-05 0)
(0.0992218532 0.000114029558 0)
(0.0991998601 3.02509047e-05 0)
(0.09920177 5.56728387e-05 0)
(0.0991924539 1.38621382e-05 0)
(0.0991921827 2.00808305e-05 0)
(0.0991876383 2.51044885e-05 0)
(0.0991882063 1.56097701e-05 0)
(0.0991782861 6.28047231e-05 0)
(0.0991841297 4.41707569e-05 0)
(0.0991604865 0.000121343891 0)
(0.099174221 0.000100219374 0)
(0.0991314256 0.000191988514 0)
(0.0991537079 0.000175426772 0)
(0.0990896743 0.000265004457 0)
(0.0991198035 0.000259177616 0)
(0.0990356626 0.000331445727 0)
(0.0990719369 0.000340478786 0)
(0.0989713005 0.000384189157 0)
(0.099011447 0.00040984136 0)
(0.0988995259 0.000418488362 0)
(0.0989410717 0.000460333574 0)
(0.0988239223 0.000432057486 0)
(0.0988644473 0.000487960248 0)
(0.0987483021 0.000424767422 0)
(0.0987856586 0.000491442055 0)
(0.0986763563 0.000398222964 0)
(0.0987088264 0.000471695114 0)
(0.0986114208 0.00035543832 0)
(0.0986377901 0.000431348412 0)
(0.0985562975 0.000300699397 0)
(0.0985758957 0.000374476016 0)
(0.0985130572 0.00023956955 0)
(0.0985258106 0.0003065747 0)
(0.098482796 0.000178850616 0)
(0.0984892896 0.000234644735 0)
(0.0984653689 0.000126232392 0)
(0.0984668863 0.00016706983 0)
(0.0984591894 8.94398298e-05 0)
(0.09845768 0.000112981166 0)
(0.0984612074 7.49156351e-05 0)
(0.0984591426 8.09862323e-05 0)
(0.0984671521 8.63728923e-05 0)
(0.0984672842 7.74388889e-05 0)
(0.0984721919 0.000123679148 0)
(0.0984771402 0.000104713556 0)
(0.0984718038 0.000182472859 0)
(0.0984835356 0.000160183773 0)
(0.0984625531 0.000254808338 0)
(0.0984819902 0.000236426848 0)
(0.0984426652 0.00033082878 0)
(0.0984695536 0.000322675453 0)
(0.0984122446 0.000401035364 0)
(0.0984453035 0.000407239929 0)
(0.0983730537 0.000458448194 0)
(0.0984103481 0.000480227057 0)
(0.0983279023 0.000499966043 0)
(0.0983673322 0.000535698714 0)
(0.098279834 0.000526512394 0)
(0.0983196031 0.00057257757 0)
(0.0982313699 0.000542005396 0)
(0.0982703024 0.000594061978 0)
(0.0981840311 0.000551622837 0)
(0.0982216646 0.000605873929 0)
(0.0981382432 0.000560052682 0)
(0.0981747088 0.000614079325 0)
(0.0980935728 0.000570330254 0)
(0.0981293448 0.000623298966 0)
(0.0980491388 0.000583530735 0)
(0.0980847657 0.000635851608 0)
(0.0980040131 0.000599194916 0)
(0.0980399216 0.00065190108 0)
(0.0979574804 0.000616108741 0)
(0.0979938912 0.000670265664 0)
(0.0979091203 0.000633026325 0)
(0.0979460616 0.000689375345 0)
(0.0978587551 0.00064908232 0)
(0.0978961274 0.000707960309 0)
(0.0978063437 0.00066385861 0)
(0.0978439877 0.000725307161 0)
(0.0977518901 0.000677229702 0)
(0.09778963 0.000741162456 0)
(0.0976953983 0.000689155211 0)
(0.0977330545 0.000755483184 0)
(0.0976368716 0.000699537202 0)
(0.0976742549 0.00076821599 0)
(0.0975763341 0.000708176385 0)
(0.0976132347 0.000779191948 0)
(0.0975138544 0.000714798937 0)
(0.0975500347 0.000788129254 0)
(0.0974495582 0.000719106345 0)
(0.0974847535 0.00079468899 0)
(0.0973836312 0.000720814115 0)
(0.0974175541 0.000798531392 0)
(0.0973163151 0.000719668792 0)
(0.0973486621 0.00079934742 0)
(0.097247902 0.00071544919 0)
(0.0972783591 0.000796866299 0)
(0.0971787293 0.000707962235 0)
(0.0972069768 0.000790851376 0)
(0.097109176 0.000697040278 0)
(0.0971348918 0.00078109536 0)
(0.0970396584 0.000682541589 0)
(0.0970625215 0.000767419542 0)
(0.0969706261 0.000664352716 0)
(0.0969903201 0.000749676306 0)
(0.0969025565 0.000642390933 0)
(0.096918773 0.000727752478 0)
(0.0968359493 0.000616605969 0)
(0.0968483923 0.000701571649 0)
(0.0967713219 0.000586980917 0)
(0.0967797116 0.000671094917 0)
(0.0967092046 0.000553532574 0)
(0.0967132812 0.000636320255 0)
(0.0966501378 0.000516311272 0)
(0.0966496638 0.000597281065 0)
(0.0965946699 0.000475399965 0)
(0.0965894313 0.000554044307 0)
(0.0965433555 0.000430912343 0)
(0.0965331613 0.000506708455 0)
(0.0964967537 0.000382990586 0)
(0.0964814342 0.000455401463 0)
(0.0964554252 0.000331802646 0)
(0.0964348302 0.000400279222 0)
(0.0964199314 0.000277543033 0)
(0.0963939268 0.000341523071 0)
(0.0963908369 0.000220439396 0)
(0.0963592955 0.000279338934 0)
(0.0963687031 0.000160755739 0)
(0.0963315002 0.000213961103 0)
(0.0963540354 9.87868509e-05 0)