/*--------------------------------*- C++ -*----------------------------------*\
| =========                 |                                                 |
| \\      /  F ield         | OpenFOAM: The Open Source CFD Toolbox           |
|  \\    /   O peration     | Version:  v2012                                 |
|   \\  /    A nd           | Website:  www.openfoam.com                      |
|    \\/     M anipulation  |                                                 |
\*---------------------------------------------------------------------------*/
FoamFile
{
    version     2.0;
    format      ascii;
    class       surfaceScalarField;
    location    "2.54";
    object      phi;
}
// * * * * * * * * * * * * * * * * * * * * * * * * * * * * * * * * * * * * * //

dimensions      [0 3 -1 0 0 0 0];
oriented        oriented;


internalField   nonuniform List<scalar> 
56481
(
6.66667793e-07
1.12956871e-11
6.66642588e-07
1.19034786e-10
6.66558612e-07
3.21650167e-10
6.66392752e-07
5.92608576e-10
6.66134914e-07
8.96503695e-10
6.6578698e-07
1.19800956e-09
6.65360267e-07
1.46535948e-09
6.64872714e-07
1.67295814e-09
6.64346263e-07
1.80330142e-09
6.63804329e-07
1.84868199e-09
6.63269553e-07
1.81117223e-09
6.62762391e-07
1.69967267e-09
6.62300643e-07
1.52594823e-09
6.6189915e-07
1.30333602e-09
6.61568627e-07
1.04939516e-09
6.61313315e-07
7.89651556e-10
6.61128318e-07
5.57909619e-10
6.60998172e-07
3.91083975e-10
6.60897631e-07
3.19994786e-10
6.60795688e-07
3.60136276e-10
6.60662478e-07
5.07424723e-10
6.6047528e-07
7.40040563e-10
6.60221801e-07
1.02348039e-09
6.59900893e-07
1.3178241e-09
6.5952113e-07
1.58549579e-09
6.59098156e-07
1.79649612e-09
6.58651658e-07
1.93049186e-09
6.58202624e-07
1.97701245e-09
6.57771326e-07
1.93467881e-09
6.57376097e-07
1.80994449e-09
6.57032564e-07
1.61593682e-09
6.56752959e-07
1.37174544e-09
6.565454e-07
1.1021182e-09
6.56410874e-07
8.36599282e-10
6.56343619e-07
6.07199755e-10
6.56330366e-07
4.46676058e-10
6.56350189e-07
3.82942313e-10
6.5637956e-07
4.29974174e-10
6.56395326e-07
5.86829313e-10
6.56378554e-07
8.3523007e-10
6.56317577e-07
1.14237476e-09
6.56209539e-07
1.46792739e-09
6.56059951e-07
1.77302816e-09
6.55880292e-07
2.02875585e-09
6.55684419e-07
2.22146151e-09
6.55484909e-07
2.35342852e-09
6.55290425e-07
2.43903307e-09
6.55104674e-07
2.49816932e-09
6.54926949e-07
2.54949571e-09
6.54753707e-07
2.60575651e-09
6.54580412e-07
2.67226181e-09
6.54402974e-07
2.74818683e-09
6.54218473e-07
2.82936665e-09
6.54025182e-07
2.91106663e-09
6.53822207e-07
2.9897087e-09
6.53609032e-07
3.06331653e-09
6.53385228e-07
3.1310602e-09
6.53150352e-07
3.19250829e-09
6.52904012e-07
3.24705582e-09
6.52645981e-07
3.29370691e-09
6.52376299e-07
3.33114354e-09
6.52095318e-07
3.35791255e-09
6.5180372e-07
3.37259064e-09
6.51502496e-07
3.37387034e-09
6.51192944e-07
3.36057563e-09
6.50876654e-07
3.33165841e-09
6.50555502e-07
3.28619406e-09
6.50231638e-07
3.22338056e-09
6.4990747e-07
3.14255683e-09
6.49585643e-07
3.04321773e-09
6.49269021e-07
2.92502136e-09
6.48960672e-07
2.78780179e-09
6.4866385e-07
2.63157125e-09
6.48381998e-07
2.45651282e-09
6.48118749e-07
2.26297412e-09
6.4787792e-07
2.05144722e-09
6.47663481e-07
1.82256397e-09
6.47479474e-07
1.5770767e-09
6.47329871e-07
1.31583073e-09
6.47218399e-07
1.03977625e-09
6.47148283e-07
7.50061993e-10
6.47121635e-07
4.48413584e-10
6.47138615e-07
1.3755843e-10
6.47208731e-07
-1.83537922e-10
6.47338221e-07
-5.10126657e-10
6.47528092e-07
-8.42210453e-10
6.47779085e-07
-1.17867607e-09
6.48091763e-07
-1.51746193e-09
6.4846645e-07
-1.85648152e-09
6.48902966e-07
-2.19328034e-09
6.49400523e-07
-2.52511983e-09
6.49957685e-07
-2.84912328e-09
6.50572329e-07
-3.1623053e-09
6.51241647e-07
-3.46161362e-09
6.51962177e-07
-3.74399909e-09
6.52729855e-07
-4.00649115e-09
6.5354007e-07
-4.24629104e-09
6.54387725e-07
-4.46086292e-09
6.55267305e-07
-4.64801032e-09
6.56172945e-07
-4.80595126e-09
6.57098517e-07
-4.93336896e-09
6.58037721e-07
-5.02943508e-09
6.58984197e-07
-5.09383078e-09
6.59931629e-07
-5.12673808e-09
6.6087386e-07
-5.1288268e-09
6.61804991e-07
-5.10121341e-09
6.62719475e-07
-5.045431e-09
6.63612196e-07
-4.96336292e-09
6.64478523e-07
-4.85719166e-09
6.6531436e-07
-4.72932791e-09
6.66116173e-07
-4.58234777e-09
6.66880999e-07
-4.4189177e-09
6.67606447e-07
-4.24173839e-09
6.6829068e-07
-4.05348582e-09
6.6893239e-07
-3.85675312e-09
6.69530757e-07
-3.65401239e-09
6.70085402e-07
-3.44757867e-09
6.7059633e-07
-3.23957498e-09
6.71063888e-07
-3.03190384e-09
6.71488738e-07
-2.82622443e-09
6.71871854e-07
-2.62393983e-09
6.7221452e-07
-2.42619396e-09
6.72518258e-07
-2.23385911e-09
6.72784729e-07
-2.04751024e-09
6.7301581e-07
-1.86762583e-09
6.73213733e-07
-1.69481122e-09
6.73380906e-07
-1.52941487e-09
6.73519651e-07
-1.37157025e-09
6.73632163e-07
-1.22138414e-09
6.73720487e-07
-1.07887509e-09
6.73786555e-07
-9.43942298e-10
6.73832311e-07
-8.16464915e-10
6.73859717e-07
-6.96274462e-10
6.73870736e-07
-5.83163104e-10
6.73867316e-07
-4.76922422e-10
6.73851447e-07
-3.77423992e-10
6.73825185e-07
-2.84626434e-10
6.73790561e-07
-1.98585254e-10
6.73749432e-07
-1.19532374e-10
6.7370308e-07
-4.77056355e-11
6.73651463e-07
1.6978864e-11
6.73591752e-07
7.55039396e-11
6.73523536e-07
1.25621327e-10
6.73448329e-07
1.69490082e-10
6.73367212e-07
2.08149767e-10
6.73281134e-07
2.42153795e-10
6.73190935e-07
2.71967575e-10
6.73097362e-07
2.98026265e-10
6.73001092e-07
3.20723504e-10
6.72902744e-07
3.40405139e-10
6.72802884e-07
3.57368874e-10
6.72702029e-07
3.7187403e-10
6.72600645e-07
3.84148903e-10
6.72499143e-07
3.94392333e-10
6.72397882e-07
4.02776017e-10
6.72297168e-07
4.0944979e-10
6.7219726e-07
4.14548033e-10
6.72098375e-07
4.1819388e-10
6.72000694e-07
4.20501718e-10
6.71904372e-07
4.21580117e-10
6.71809541e-07
4.21532536e-10
6.71716316e-07
4.20458098e-10
6.71624801e-07
4.1845068e-10
6.71535086e-07
4.15599663e-10
6.71447253e-07
4.11988353e-10
6.71361379e-07
4.07694248e-10
6.71277528e-07
4.02788165e-10
6.71195761e-07
3.97334401e-10
6.71116128e-07
3.91390024e-10
6.71038673e-07
3.85005732e-10
6.70963431e-07
3.78226335e-10
6.7089043e-07
3.71090838e-10
6.70819689e-07
3.63633866e-10
6.70751223e-07
3.55886476e-10
6.7068504e-07
3.47876377e-10
6.70621145e-07
3.39629137e-10
6.70559537e-07
3.31168625e-10
6.70500217e-07
3.2251674e-10
6.70443183e-07
3.13694055e-10
6.70388434e-07
3.04719331e-10
6.70335972e-07
2.95609548e-10
6.70285798e-07
2.86378849e-10
6.70237922e-07
2.7703858e-10
6.70192353e-07
2.67595022e-10
6.70149113e-07
2.58052758e-10
6.70108236e-07
2.48384815e-10
6.70069759e-07
2.38653814e-10
6.70033837e-07
2.28390952e-10
6.7000033e-07
2.19400569e-10
2.0251598e-10
6.66678006e-07
-1.10401269e-13
6.66680276e-07
1.16764686e-10
6.66629233e-07
3.72693022e-10
6.66491264e-07
7.30578152e-10
6.66248744e-07
1.13902374e-09
6.65900733e-07
1.54601984e-09
6.65459289e-07
1.90680392e-09
6.64944776e-07
2.18747117e-09
6.64382431e-07
2.36564634e-09
6.63799568e-07
2.43154493e-09
6.63222954e-07
2.38778639e-09
6.62677011e-07
2.24561589e-09
6.62183194e-07
2.01976506e-09
6.61759649e-07
1.72688051e-09
6.6141981e-07
1.38923457e-09
6.61169524e-07
1.03993765e-09
6.6100381e-07
7.23623574e-10
6.60905394e-07
4.8949956e-10
6.60846306e-07
3.79082825e-10
6.60792029e-07
4.14413347e-10
6.60707213e-07
5.92240775e-10
6.60562157e-07
8.85096975e-10
6.60337706e-07
1.24793147e-09
6.60027643e-07
1.6278869e-09
6.59638699e-07
1.97443934e-09
6.5918816e-07
2.24703559e-09
6.58700041e-07
2.41861114e-09
6.58201283e-07
2.47576969e-09
6.57718777e-07
2.41718472e-09
6.57277338e-07
2.25138377e-09
6.56898383e-07
1.99489244e-09
6.56598795e-07
1.67133247e-09
6.56389567e-07
1.31134713e-09
6.56274023e-07
9.5214322e-10
6.56245614e-07
6.35608443e-10
6.56288226e-07
4.04063979e-10
6.56377957e-07
2.93210962e-10
6.56483756e-07
3.24175846e-10
6.5657294e-07
4.9764503e-10
6.56617219e-07
7.90951409e-10
6.56597979e-07
1.16161419e-09
6.56509331e-07
1.55657541e-09
6.56358163e-07
1.92419648e-09
6.56161056e-07
2.22586306e-09
6.55939066e-07
2.44345158e-09
6.55712034e-07
2.58045986e-09
6.55494145e-07
2.65692191e-09
6.55291879e-07
2.70043573e-09
6.55104554e-07
2.73682108e-09
6.5492672e-07
2.7835904e-09
6.54751163e-07
2.84781802e-09
6.54571364e-07
2.92798634e-09
6.54382769e-07
3.01796206e-09
6.54182892e-07
3.11094285e-09
6.53970691e-07
3.20190989e-09
6.5374577e-07
3.28823784e-09
6.53507823e-07
3.36900722e-09
6.53256435e-07
3.44389642e-09
6.52991156e-07
3.51233423e-09
6.5271169e-07
3.57317305e-09
6.52418051e-07
3.62478287e-09
6.52110643e-07
3.6653201e-09
6.51790265e-07
3.6929688e-09
6.51458081e-07
3.70605406e-09
6.51115609e-07
3.70304818e-09
6.50764691e-07
3.68257666e-09
6.50407479e-07
3.6434054e-09
6.50046423e-07
3.58443684e-09
6.49684248e-07
3.50473172e-09
6.49323938e-07
3.4035279e-09
6.4896871e-07
3.2802495e-09
6.48621991e-07
3.1345206e-09
6.48287395e-07
2.96616722e-09
6.47968697e-07
2.77521065e-09
6.47669805e-07
2.56186669e-09
6.47394716e-07
2.32653609e-09
6.4714749e-07
2.06978938e-09
6.46932205e-07
1.79236233e-09
6.46752866e-07
1.49516906e-09
6.46613215e-07
1.1794277e-09
6.46517163e-07
8.46113812e-10
6.46469748e-07
4.95828934e-10
6.46477994e-07
1.2931231e-10
6.46540794e-07
-2.46338584e-10
6.46662815e-07
-6.32146712e-10
6.46846981e-07
-1.02637654e-09
6.47095583e-07
-1.42727889e-09
6.47410276e-07
-1.83215461e-09
6.47791853e-07
-2.23805842e-09
6.48240453e-07
-2.6418802e-09
6.48755541e-07
-3.04020793e-09
6.49335826e-07
-3.42940798e-09
6.49979226e-07
-3.80570574e-09
6.50682869e-07
-4.16525686e-09
6.51443105e-07
-4.50423523e-09
6.52255541e-07
-4.81892716e-09
6.53115093e-07
-5.10584303e-09
6.54016054e-07
-5.36182348e-09
6.54952174e-07
-5.58412983e-09
6.55916759e-07
-5.77053672e-09
6.56902789e-07
-5.91939899e-09
6.57903041e-07
-6.02968725e-09
6.5891023e-07
-6.10101955e-09
6.59917146e-07
-6.13365453e-09
6.60916795e-07
-6.12847503e-09
6.61902516e-07
-6.08693449e-09
6.62868099e-07
-6.0110138e-09
6.63807869e-07
-5.90313329e-09
6.6471676e-07
-5.76608239e-09
6.65590358e-07
-5.60292608e-09
6.66424932e-07
-5.41692184e-09
6.67217438e-07
-5.21142336e-09
6.67965507e-07
-4.98980809e-09
6.68667425e-07
-4.7554031e-09
6.69322085e-07
-4.51141355e-09
6.69928949e-07
-4.26087676e-09
6.7048799e-07
-4.00661922e-09
6.70999631e-07
-3.75121577e-09
6.71464689e-07
-3.49696201e-09
6.71884315e-07
-3.24585034e-09
6.72259938e-07
-2.99956322e-09
6.72593234e-07
-2.75948958e-09
6.72886117e-07
-2.52674219e-09
6.73140799e-07
-2.3021923e-09
6.73359676e-07
-2.08650332e-09
6.73545045e-07
-1.88018024e-09
6.73699177e-07
-1.68354669e-09
6.73824398e-07
-1.49679077e-09
6.73923078e-07
-1.32006408e-09
6.73997689e-07
-1.15348678e-09
6.7405036e-07
-9.96613107e-10
6.74083133e-07
-8.49237793e-10
6.74098004e-07
-7.11145244e-10
6.74096912e-07
-5.82071475e-10
6.74081755e-07
-4.61764745e-10
6.7405432e-07
-3.49989689e-10
6.74016087e-07
-2.463936e-10
6.73968106e-07
-1.50603983e-10
6.73910971e-07
-6.23974403e-11
6.73845389e-07
1.78769785e-11
6.73774199e-07
8.81686745e-11
6.73698242e-07
1.51460498e-10
6.73616754e-07
2.07109367e-10
6.73530245e-07
2.55998818e-10
6.73439356e-07
2.99038711e-10
6.73344703e-07
3.36806964e-10
6.732469e-07
3.69770547e-10
6.73146548e-07
3.9837825e-10
6.73044217e-07
4.23055178e-10
6.72940431e-07
4.44190772e-10
6.72835669e-07
4.62130779e-10
6.72730363e-07
4.77179798e-10
6.72624904e-07
4.8960807e-10
6.72519641e-07
4.9965507e-10
6.72414886e-07
5.07531729e-10
6.72310911e-07
5.13424835e-10
6.72207955e-07
5.17503306e-10
6.72106227e-07
5.19922068e-10
6.72005905e-07
5.20824041e-10
6.71907142e-07
5.20343132e-10
6.71810069e-07
5.18604938e-10
6.717148e-07
5.15727766e-10
6.71621429e-07
5.11821775e-10
6.71530038e-07
5.06990276e-10
6.71440698e-07
5.01328293e-10
6.71353469e-07
4.94923401e-10
6.71268402e-07
4.87855149e-10
6.71185541e-07
4.80195656e-10
6.71104922e-07
4.72009039e-10
6.71026575e-07
4.63352606e-10
6.70950524e-07
4.542774e-10
6.70876787e-07
4.44828157e-10
6.70805376e-07
4.35044777e-10
6.70736299e-07
4.24963028e-10
6.70669561e-07
4.14614559e-10
6.70605162e-07
4.0402815e-10
6.705431e-07
3.93230098e-10
6.70483373e-07
3.82243851e-10
6.70425977e-07
3.7109079e-10
6.70370906e-07
3.59789736e-10
6.70318159e-07
3.48357115e-10
6.70267732e-07
3.3680588e-10
6.70219624e-07
3.25145829e-10
6.70173838e-07
3.1338129e-10
6.70130374e-07
3.01516908e-10
6.70089236e-07
2.89522271e-10
6.70050392e-07
2.77498008e-10
6.70013884e-07
2.64899095e-10
6.69979097e-07
2.54187684e-10
2.34231338e-10
6.66674043e-07
-7.45356741e-12
6.66664942e-07
1.258661e-10
6.66602921e-07
4.34713728e-10
6.66457096e-07
8.76403351e-10
6.66211389e-07
1.38473046e-09
6.65864724e-07
1.89268487e-09
6.65427864e-07
2.34366375e-09
6.64919624e-07
2.69571184e-09
6.64363807e-07
2.92146299e-09
6.63786536e-07
3.0088158e-09
6.63213705e-07
2.96061749e-09
6.62669164e-07
2.79015683e-09
6.62173997e-07
2.51493188e-09
6.61746151e-07
2.15472709e-09
6.61399154e-07
1.73623087e-09
6.61139465e-07
1.29962714e-09
6.60963334e-07
8.99754874e-10
6.60854803e-07
5.98030459e-10
6.60786277e-07
4.47608185e-10
6.60722555e-07
4.78135258e-10
6.60628252e-07
6.86543751e-10
6.60474975e-07
1.03837408e-09
6.60245547e-07
1.47735949e-09
6.59935197e-07
1.93823689e-09
6.59550645e-07
2.35899194e-09
6.59107904e-07
2.68977649e-09
6.58629224e-07
2.89729114e-09
6.5813988e-07
2.96511341e-09
6.57665496e-07
2.89156917e-09
6.57230077e-07
2.68680219e-09
6.56854576e-07
2.37039324e-09
6.56555627e-07
1.97028204e-09
6.56344195e-07
1.52277881e-09
6.56223968e-07
1.07236991e-09
6.56189939e-07
6.69637849e-10
6.56227735e-07
3.66268002e-10
6.56313617e-07
2.07329336e-10
6.56417085e-07
2.20707922e-10
6.56506939e-07
4.07790936e-10
6.56556352e-07
7.41538447e-10
6.56547276e-07
1.17069021e-09
6.56473165e-07
1.63068574e-09
6.56339165e-07
2.05819699e-09
6.56159683e-07
2.40534464e-09
6.55953855e-07
2.64927976e-09
6.55740308e-07
2.79400658e-09
6.55532876e-07
2.86435459e-09
6.55338416e-07
2.89489577e-09
6.55157033e-07
2.91820407e-09
6.54984099e-07
2.95652407e-09
6.54812975e-07
3.0189423e-09
6.54637344e-07
3.1036166e-09
6.54452533e-07
3.20277333e-09
6.54255741e-07
3.30773521e-09
6.54045563e-07
3.41208748e-09
6.53821302e-07
3.51249895e-09
6.53582443e-07
3.60786587e-09
6.53328448e-07
3.69789162e-09
6.530588e-07
3.78198266e-09
6.52773165e-07
3.85880776e-09
6.52471545e-07
3.92640265e-09
6.52154358e-07
3.98250713e-09
6.51822459e-07
4.02486801e-09
6.51477117e-07
4.05139645e-09
6.51119969e-07
4.0601957e-09
6.50753002e-07
4.04954392e-09
6.5037853e-07
4.01787763e-09
6.49999178e-07
3.96378836e-09
6.4961786e-07
3.88604945e-09
6.49237749e-07
3.7836393e-09
6.48862247e-07
3.65575183e-09
6.48494958e-07
3.5018096e-09
6.48139662e-07
3.32146273e-09
6.47800295e-07
3.1145781e-09
6.47480924e-07
2.88123724e-09
6.47185733e-07
2.62172718e-09
6.46918994e-07
2.33652826e-09
6.4668504e-07
2.02631681e-09
6.46488244e-07
1.69196472e-09
6.46333155e-07
1.33451702e-09
6.46224157e-07
9.55111199e-10
6.4616432e-07
5.5566611e-10
6.46153775e-07
1.39857384e-10
6.46201845e-07
-2.94408707e-10
6.46311727e-07
-7.42028072e-10
6.46486515e-07
-1.20116453e-09
6.46728294e-07
-1.66905845e-09
6.47038818e-07
-2.14267865e-09
6.47419336e-07
-2.61857677e-09
6.47870357e-07
-3.09290097e-09
6.48391612e-07
-3.5614624e-09
6.48982015e-07
-4.01981164e-09
6.49639621e-07
-4.4633109e-09
6.50361592e-07
-4.88722885e-09
6.51144209e-07
-5.28685167e-09
6.51982881e-07
-5.65759906e-09
6.528722e-07
-5.99516212e-09
6.53806012e-07
-6.29563584e-09
6.54777516e-07
-6.55563364e-09
6.55779385e-07
-6.7724052e-09
6.56803909e-07
-6.94392351e-09
6.57843155e-07
-7.06893326e-09
6.58889128e-07
-7.14699198e-09
6.59933935e-07
-7.17846206e-09
6.60969948e-07
-7.16448823e-09
6.61989942e-07
-7.10692794e-09
6.6298722e-07
-7.00829165e-09
6.63955715e-07
-6.87162887e-09
6.64890067e-07
-6.70043445e-09
6.65785669e-07
-6.49852784e-09
6.66638693e-07
-6.26994564e-09
6.6744609e-07
-6.01882032e-09
6.6820557e-07
-5.74928849e-09
6.68915566e-07
-5.46539924e-09
6.6957518e-07
-5.17102746e-09
6.70184122e-07
-4.86981902e-09
6.70742643e-07
-4.56513983e-09
6.71251459e-07
-4.26003192e-09
6.71711692e-07
-3.95719522e-09
6.72124815e-07
-3.65897301e-09
6.72492599e-07
-3.36734696e-09
6.72817064e-07
-3.08395487e-09
6.73100428e-07
-2.81010616e-09
6.73345047e-07
-2.5468111e-09
6.73553364e-07
-2.2948203e-09
6.73727867e-07
-2.05468302e-09
6.73871073e-07
-1.82675319e-09
6.73985481e-07
-1.61119831e-09
6.7407346e-07
-1.40804385e-09
6.74137154e-07
-1.21717995e-09
6.7417888e-07
-1.03833959e-09
6.74200871e-07
-8.71228451e-10
6.74205223e-07
-7.15497754e-10
6.7419382e-07
-5.70668662e-10
6.74168149e-07
-4.36092951e-10
6.74130187e-07
-3.12027647e-10
6.74082085e-07
-1.9829218e-10
6.74026039e-07
-9.45575972e-11
6.73965258e-07
-1.61709002e-12
6.73897111e-07
8.60245921e-11
6.7382204e-07
1.63239442e-10
6.73741222e-07
2.32279008e-10
6.73654862e-07
2.93468552e-10
6.73563569e-07
3.47292453e-10
6.73468129e-07
3.94478416e-10
6.73369251e-07
4.35684728e-10
6.73267562e-07
4.71460039e-10
6.73163641e-07
5.02299045e-10
6.73058033e-07
5.28662654e-10
6.72951249e-07
5.50975729e-10
6.72843757e-07
5.69622586e-10
6.72735988e-07
5.84948665e-10
6.72628329e-07
5.97266636e-10
6.72521123e-07
6.06860897e-10
6.72414667e-07
6.13988276e-10
6.72309213e-07
6.18879123e-10
6.72204974e-07
6.21741535e-10
6.72102132e-07
6.22764248e-10
6.72000838e-07
6.22118181e-10
6.71901221e-07
6.19959952e-10
6.71803393e-07
6.16433357e-10
6.71707449e-07
6.11671525e-10
6.71613474e-07
6.05796752e-10
6.71521542e-07
5.98922756e-10
6.71431716e-07
5.91153553e-10
6.71344055e-07
5.82584948e-10
6.71258606e-07
5.73304195e-10
6.71175411e-07
5.63390876e-10
6.71094503e-07
5.52916255e-10
6.71015911e-07
5.41944599e-10
6.70939655e-07
5.3053365e-10
6.70865749e-07
5.18734356e-10
6.70794201e-07
5.06592317e-10
6.70725016e-07
4.94148333e-10
6.70658192e-07
4.81438175e-10
6.70593727e-07
4.68493864e-10
6.70531613e-07
4.55344025e-10
6.70471843e-07
4.42013462e-10
6.7041441e-07
4.28524144e-10
6.70359305e-07
4.14894781e-10
6.70306521e-07
4.01141208e-10
6.70256051e-07
3.87275409e-10
6.70207891e-07
3.73306174e-10
6.70162035e-07
3.59236844e-10
6.7011848e-07
3.45072293e-10
6.70077224e-07
3.30777891e-10
6.70038253e-07
3.16469264e-10
6.70001653e-07
3.01498626e-10
6.69967204e-07
2.88636821e-10
2.64832739e-10
6.66677848e-07
-1.86015241e-11
6.66680571e-07
1.23143245e-10
6.66631702e-07
4.83582883e-10
6.66496282e-07
1.01182279e-09
6.66255267e-07
1.6257459e-09
6.65906209e-07
2.24174271e-09
6.65459699e-07
2.79017322e-09
6.64935252e-07
3.22015947e-09
6.64358175e-07
3.49853962e-09
6.63756766e-07
3.6102254e-09
6.63159523e-07
3.55785995e-09
6.62593029e-07
3.35665095e-09
6.62080867e-07
3.02709374e-09
6.61642887e-07
2.59270745e-09
6.61293615e-07
2.08550272e-09
6.61039374e-07
1.55386835e-09
6.60875099e-07
1.06402921e-09
6.60782807e-07
6.90322378e-10
6.60733432e-07
4.96984003e-10
6.60691491e-07
5.20075537e-10
6.60620203e-07
7.57832e-10
6.60487394e-07
1.17118298e-09
6.60271314e-07
1.69344017e-09
6.59963954e-07
2.24559684e-09
6.59571159e-07
2.75178661e-09
6.59110194e-07
3.15074139e-09
6.58606028e-07
3.40145721e-09
6.58087474e-07
3.48366756e-09
6.57583966e-07
3.39507681e-09
6.57123224e-07
3.14754473e-09
6.56729564e-07
2.7640532e-09
6.56422418e-07
2.27742753e-09
6.56214617e-07
1.73057971e-09
6.56110271e-07
1.17671593e-09
6.56102689e-07
6.7722018e-10
6.56173776e-07
2.95181178e-10
6.56297073e-07
8.4032571e-11
6.56440965e-07
7.68157588e-11
6.5657152e-07
2.77235428e-10
6.56657719e-07
6.55339869e-10
6.56677769e-07
1.15063991e-09
6.56623117e-07
1.68533791e-09
6.5649931e-07
2.18200385e-09
6.56322833e-07
2.58182167e-09
6.56115579e-07
2.85653406e-09
6.5589883e-07
3.01075526e-09
6.55688427e-07
3.0747576e-09
6.55492333e-07
3.09098961e-09
6.55310879e-07
3.09965837e-09
6.55139007e-07
3.12839553e-09
6.54969303e-07
3.18864701e-09
6.54794607e-07
3.27831265e-09
6.54609518e-07
3.38786196e-09
6.54410697e-07
3.5065561e-09
6.54196372e-07
3.62641268e-09
6.53965595e-07
3.74327617e-09
6.53717669e-07
3.85579132e-09
6.53451913e-07
3.96364824e-09
6.53167697e-07
4.06619873e-09
6.52864616e-07
4.16188833e-09
6.52542649e-07
4.24836968e-09
6.52202243e-07
4.32291286e-09
6.51844331e-07
4.38278016e-09
6.51470302e-07
4.42542559e-09
6.51081963e-07
4.44853489e-09
6.50681506e-07
4.45000064e-09
6.50271485e-07
4.42789904e-09
6.49854789e-07
4.380484e-09
6.49434622e-07
4.30621675e-09
6.49014469e-07
4.20379224e-09
6.48598069e-07
4.07215139e-09
6.48189382e-07
3.91049628e-09
6.47792555e-07
3.71828983e-09
6.47411889e-07
3.49524491e-09
6.47051803e-07
3.24132292e-09
6.46716806e-07
2.95672419e-09
6.46411459e-07
2.64187468e-09
6.46140351e-07
2.29742576e-09
6.45908063e-07
1.92425208e-09
6.4571912e-07
1.52346007e-09
6.45577847e-07
1.09638453e-09
6.45488931e-07
6.44581912e-10
6.45459308e-07
1.69480076e-10
6.45490226e-07
-3.25326918e-10
6.45586259e-07
-8.38060568e-10
6.45750822e-07
-1.36572802e-09
6.45987032e-07
-1.90526761e-09
6.46297295e-07
-2.45294164e-09
6.4668328e-07
-3.00456214e-09
6.47145903e-07
-3.5555243e-09
6.4768524e-07
-4.10079868e-09
6.4830043e-07
-4.63500175e-09
6.48989608e-07
-5.15248934e-09
6.49749859e-07
-5.64748014e-09
6.50577204e-07
-6.11419654e-09
6.51466618e-07
-6.54701255e-09
6.52412084e-07
-6.94062818e-09
6.53406685e-07
-7.29023664e-09
6.54442721e-07
-7.59166998e-09
6.55511863e-07
-7.84154756e-09
6.56605328e-07
-8.03738771e-09
6.57714066e-07
-8.17767211e-09
6.58828973e-07
-8.26189821e-09
6.59941081e-07
-8.29057005e-09
6.6104176e-07
-8.26516722e-09
6.62122886e-07
-8.18805455e-09
6.63176994e-07
-8.06239956e-09
6.6419739e-07
-7.89202516e-09
6.65178241e-07
-7.68128481e-09
6.6611462e-07
-7.43490728e-09
6.67002533e-07
-7.15785837e-09
6.67838902e-07
-6.85518926e-09
6.68621535e-07
-6.53192162e-09
6.69349072e-07
-6.19293574e-09
6.70020912e-07
-5.84286783e-09
6.70637139e-07
-5.48604636e-09
6.71198435e-07
-5.12643561e-09
6.71705993e-07
-4.76758947e-09
6.72161434e-07
-4.412637e-09
6.72566734e-07
-4.0642725e-09
6.72924143e-07
-3.72475568e-09
6.73236127e-07
-3.3959389e-09
6.73505311e-07
-3.07929094e-09
6.73734435e-07
-2.77593481e-09
6.73926297e-07
-2.48668265e-09
6.74083695e-07
-2.21208099e-09
6.74209381e-07
-1.95243921e-09
6.7430604e-07
-1.70785706e-09
6.74376262e-07
-1.47826606e-09
6.7442254e-07
-1.26345746e-09
6.74447287e-07
-1.0630867e-09
6.74452777e-07
-8.76718345e-10
6.74441148e-07
-7.03868514e-10
6.74414518e-07
-5.44038993e-10
6.74375181e-07
-3.96756479e-10
6.7432478e-07
-2.61625839e-10
6.74264706e-07
-1.38218886e-10
6.74195004e-07
-2.48553676e-11
6.74115947e-07
7.74398678e-11
6.74031794e-07
1.70177598e-10
6.73941908e-07
2.53125823e-10
6.73847299e-07
3.26887367e-10
6.73748592e-07
3.92175817e-10
6.73646283e-07
4.49601436e-10
6.73540942e-07
4.99819569e-10
6.73433149e-07
5.43477489e-10
6.73323448e-07
5.81161571e-10
6.7321234e-07
6.13406792e-10
6.7310029e-07
6.40712363e-10
6.72987722e-07
6.63543632e-10
6.72875016e-07
6.82328713e-10
6.7276251e-07
6.97454962e-10
6.72650507e-07
7.0926963e-10
6.72539283e-07
7.18085128e-10
6.72429088e-07
7.24183349e-10
6.72320148e-07
7.27818963e-10
6.72212665e-07
7.2922456e-10
6.72106815e-07
7.28613609e-10
6.72002752e-07
7.26181463e-10
6.71900604e-07
7.22108218e-10
6.71800478e-07
7.16559138e-10
6.71702463e-07
7.09686332e-10
6.71606632e-07
7.01628293e-10
6.71513042e-07
6.92512585e-10
6.71421741e-07
6.82454749e-10
6.71332765e-07
6.71560255e-10
6.71246145e-07
6.59924351e-10
6.71161903e-07
6.47633349e-10
6.71080055e-07
6.34764105e-10
6.71000614e-07
6.2138571e-10
6.70923587e-07
6.07560121e-10
6.7084898e-07
5.93341884e-10
6.70776792e-07
5.78779793e-10
6.70707023e-07
5.63917484e-10
6.70639668e-07
5.48793141e-10
6.70574721e-07
5.33440906e-10
6.70512174e-07
5.17891237e-10
6.70452017e-07
5.02170378e-10
6.7039424e-07
4.86301453e-10
6.70338831e-07
4.70303975e-10
6.70285777e-07
4.5419433e-10
6.70235068e-07
4.37984761e-10
6.7018669e-07
4.21684342e-10
6.7014063e-07
4.05296681e-10
6.70096873e-07
3.88829013e-10
6.70055406e-07
3.72245301e-10
6.7001618e-07
3.55695334e-10
6.69979224e-07
3.38454492e-10
6.69943984e-07
3.23877325e-10
2.97001234e-10
6.66677497e-07
-2.94984493e-11
6.66678428e-07
1.22212486e-10
6.66627691e-07
5.34320049e-10
6.66490484e-07
1.14902955e-09
6.66247611e-07
1.86861852e-09
6.65896416e-07
2.59293805e-09
6.65447314e-07
3.23927549e-09
6.64919594e-07
3.74787884e-09
6.6433829e-07
4.07984363e-09
6.63731447e-07
4.21706817e-09
6.63127385e-07
4.16192265e-09
6.62552604e-07
3.93143161e-09
6.62030747e-07
3.54895115e-09
6.61581966e-07
3.04148808e-09
6.61221461e-07
2.44600793e-09
6.60956693e-07
1.81863613e-09
6.6078394e-07
1.23678192e-09
6.60686368e-07
7.87894496e-10
6.6063459e-07
5.487625e-10
6.60590772e-07
5.63892835e-10
6.60516528e-07
8.32075995e-10
6.60380331e-07
1.30737992e-09
6.6016186e-07
1.9119112e-09
6.59853885e-07
2.55357219e-09
6.59461995e-07
3.14367679e-09
6.59002567e-07
3.61016965e-09
6.58499597e-07
3.9044266e-09
6.5798122e-07
4.00204481e-09
6.57476606e-07
3.89969032e-09
6.5701356e-07
3.61059085e-09
6.56616669e-07
3.16094424e-09
6.56305661e-07
2.58843538e-09
6.56093751e-07
1.94248996e-09
6.55986118e-07
1.28434917e-09
6.55978799e-07
6.84538862e-10
6.56057703e-07
2.16277197e-10
6.5619491e-07
-5.31741497e-11
6.5635603e-07
-8.4303873e-11
6.56504424e-07
1.2884074e-10
6.56607257e-07
5.52507374e-10
6.56643825e-07
1.11407213e-09
6.5660619e-07
1.72297249e-09
6.56499594e-07
2.28859968e-09
6.56339694e-07
2.74172152e-09
6.56147838e-07
3.04839008e-09
6.55945231e-07
3.21336257e-09
6.5574795e-07
3.27203843e-09
6.55564277e-07
3.27466298e-09
6.55394734e-07
3.26920098e-09
6.55234236e-07
3.28889418e-09
6.55075127e-07
3.34775576e-09
6.54909886e-07
3.44355308e-09
6.54732715e-07
3.56503283e-09
6.54539906e-07
3.69936585e-09
6.54329371e-07
3.83694736e-09
6.54099905e-07
3.97274257e-09
6.53850597e-07
4.10509881e-09
6.53580592e-07
4.23365309e-09
6.53289129e-07
4.35766166e-09
6.52975718e-07
4.47530009e-09
6.52640303e-07
4.58378463e-09
6.52283357e-07
4.67985845e-09
6.51905895e-07
4.76024214e-09
6.51509443e-07
4.82187731e-09
6.51096e-07
4.86197875e-09
6.50667995e-07
4.87800541e-09
6.50228261e-07
4.86763271e-09
6.49779998e-07
4.82874707e-09
6.49326734e-07
4.7594812e-09
6.4887228e-07
4.65824551e-09
6.4842069e-07
4.52374126e-09
6.47976213e-07
4.35497335e-09
6.4754326e-07
4.1512435e-09
6.47126374e-07
3.91213103e-09
6.46730211e-07
3.6374858e-09
6.4635952e-07
3.32741499e-09
6.46019126e-07
2.98226842e-09
6.45713912e-07
2.60264004e-09
6.45448796e-07
2.18936832e-09
6.45228712e-07
1.74354323e-09
6.45058571e-07
1.26652564e-09
6.4494303e-07
7.60122815e-10
6.44885725e-07
2.2678554e-10
6.44892671e-07
-3.32273008e-10
6.44968169e-07
-9.13558295e-10
6.45116375e-07
-1.51393381e-09
6.45340754e-07
-2.1296468e-09
6.45644256e-07
-2.75644432e-09
6.46029168e-07
-3.38947401e-09
6.46496945e-07
-4.02330069e-09
6.470481e-07
-4.65195429e-09
6.47682106e-07
-5.26900752e-09
6.48397292e-07
-5.86767546e-09
6.49190776e-07
-6.44096349e-09
6.5005842e-07
-6.98184134e-09
6.50994838e-07
-7.48342985e-09
6.51993432e-07
-7.93922247e-09
6.53046497e-07
-8.34330165e-09
6.54145358e-07
-8.69053083e-09
6.55280558e-07
-8.97674771e-09
6.56442081e-07
-9.19891083e-09
6.57619595e-07
-9.35518572e-09
6.58802706e-07
-9.44500979e-09
6.59981215e-07
-9.46907927e-09
6.61145352e-07
-9.42930401e-09
6.62285986e-07
-9.32868861e-09
6.63394805e-07
-9.17121831e-09
6.64464448e-07
-8.96166823e-09
6.65488601e-07
-8.70543788e-09
6.66462046e-07
-8.40835211e-09
6.67380672e-07
-8.07648393e-09
6.68241448e-07
-7.71596582e-09
6.69042374e-07
-7.33284701e-09
6.69782396e-07
-6.93295851e-09
6.70461321e-07
-6.52179283e-09
6.71079707e-07
-6.10443163e-09
6.71638756e-07
-5.68548466e-09
6.72140209e-07
-5.26904313e-09
6.72586244e-07
-4.858672e-09
6.7297938e-07
-4.45740849e-09
6.73322395e-07
-4.06777052e-09
6.73618249e-07
-3.69179302e-09
6.73870018e-07
-3.33105944e-09
6.74080831e-07
-2.98674759e-09
6.74253818e-07
-2.65967009e-09
6.74392064e-07
-2.35032708e-09
6.74498573e-07
-2.05894819e-09
6.74576245e-07
-1.78552926e-09
6.74627856e-07
-1.52987641e-09
6.74656039e-07
-1.291641e-09
6.74663298e-07
-1.07034584e-09
6.74651999e-07
-8.65418889e-10
6.74624341e-07
-6.76211018e-10
6.74582304e-07
-5.02001424e-10
6.74527576e-07
-3.42028727e-10
6.7446153e-07
-1.95579604e-10
6.7438548e-07
-6.21694833e-11
6.74302525e-07
5.8100051e-11
6.74213002e-07
1.66962966e-10
6.74118221e-07
2.64958931e-10
6.74018706e-07
3.52640604e-10
6.7391502e-07
4.30573154e-10
6.73807789e-07
4.99406671e-10
6.73697588e-07
5.59802349e-10
6.73584975e-07
6.12432421e-10
6.7347049e-07
6.57962355e-10
6.73354635e-07
6.97016737e-10
6.73237871e-07
7.30170863e-10
6.73120626e-07
7.57957209e-10
6.73003302e-07
7.80868349e-10
6.72886271e-07
7.99359744e-10
6.72769874e-07
8.13851434e-10
6.72654414e-07
8.24729298e-10
6.72540152e-07
8.32347528e-10
6.72427307e-07
8.37028641e-10
6.72316062e-07
8.39063255e-10
6.72206573e-07
8.38714146e-10
6.72098967e-07
8.36219505e-10
6.71993354e-07
8.31794499e-10
6.71889827e-07
8.25635291e-10
6.71788466e-07
8.17920452e-10
6.71689338e-07
8.08813669e-10
6.71592503e-07
7.98463564e-10
6.71498009e-07
7.87006854e-10
6.71405896e-07
7.74567172e-10
6.71316199e-07
7.61257425e-10
6.71228944e-07
7.47179752e-10
6.7114415e-07
7.32427006e-10
6.71061832e-07
7.17082145e-10
6.70981998e-07
7.01220042e-10
6.7090465e-07
6.84908077e-10
6.70829786e-07
6.6820566e-10
6.707574e-07
6.51165913e-10
6.70687481e-07
6.3383616e-10
6.70620017e-07
6.16257436e-10
6.70554992e-07
5.98465984e-10
6.70492389e-07
5.80493639e-10
6.70432192e-07
5.62367282e-10
6.70374384e-07
5.44110192e-10
6.70318946e-07
5.25741665e-10
6.70265863e-07
5.07277736e-10
6.70215117e-07
4.88730278e-10
6.70166693e-07
4.70108301e-10
6.70120574e-07
4.51415732e-10
6.70076742e-07
4.32661511e-10
6.70035179e-07
4.13807507e-10
6.69995854e-07
3.9502049e-10
6.69958835e-07
3.75473875e-10
6.69923858e-07
3.58854352e-10
3.28192221e-10
6.66677735e-07
-4.05331953e-11
6.66680036e-07
1.19911364e-10
6.66630827e-07
5.83529072e-10
6.66494393e-07
1.28546379e-09
6.66250572e-07
2.11243863e-09
6.65895773e-07
2.94773771e-09
6.654397e-07
3.69534854e-09
6.64901471e-07
4.2861079e-09
6.64306637e-07
4.67467719e-09
6.6368438e-07
4.83932514e-09
6.63064549e-07
4.78175432e-09
6.62475326e-07
4.52065424e-09
6.61941977e-07
4.08230024e-09
6.61485977e-07
3.49748738e-09
6.61123171e-07
2.80881402e-09
6.60860631e-07
2.08117621e-09
6.60693351e-07
1.40406208e-09
6.60602631e-07
8.78614302e-10
6.60558031e-07
5.93362885e-10
6.60521938e-07
5.99985686e-10
6.60455407e-07