/*--------------------------------*- C++ -*----------------------------------*\
| =========                 |                                                 |
| \\      /  F ield         | OpenFOAM: The Open Source CFD Toolbox           |
|  \\    /   O peration     | Version:  v2012                                 |
|   \\  /    A nd           | Website:  www.openfoam.com                      |
|    \\/     M anipulation  |                                                 |
\*---------------------------------------------------------------------------*/
FoamFile
{
    version     2.0;
    format      ascii;
    class       volVectorField;
    location    "2.54";
    object      U;
}
// * * * * * * * * * * * * * * * * * * * * * * * * * * * * * * * * * * * * * //

dimensions      [0 1 -1 0 0 0 0];


internalField   nonuniform List<vector> 
28416
(
(0.100000464 2.30574977e-06 0)
(0.0999999616 1.67363291e-05 0)
(0.0999931517 4.20547778e-05 0)
(0.0999750744 7.52518533e-05 0)
(0.0999432189 0.000112382764 0)
(0.09989738 0.000149379064 0)
(0.0998387274 0.000182363226 0)
(0.09976942 0.00020803005 0)
(0.0996924747 0.000224025235 0)
(0.0996114246 0.000229265083 0)
(0.0995298351 0.000223979688 0)
(0.0994509663 0.000209339569 0)
(0.0993776746 0.000186930864 0)
(0.0993124238 0.000158561398 0)
(0.099257206 0.000126572007 0)
(0.0992132573 9.42852809e-05 0)
(0.0991806089 6.60096946e-05 0)
(0.0991577402 4.63662176e-05 0)
(0.0991415787 3.90772044e-05 0)
(0.0991277494 4.58743685e-05 0)
(0.099111268 6.61990967e-05 0)
(0.0990878463 9.7421176e-05 0)
(0.0990549077 0.000135291498 0)
(0.0990116357 0.000174775622 0)
(0.0989586379 0.000211037499 0)
(0.0988977478 0.000240111115 0)
(0.0988317293 0.000259181052 0)
(0.0987637633 0.000266667867 0)
(0.0986970064 0.000262221999 0)
(0.0986343737 0.000246637146 0)
(0.09857844 0.000221723879 0)
(0.0985313214 0.000190188498 0)
(0.0984945685 0.00015553394 0)
(0.098468975 0.000121862417 0)
(0.0984542439 9.35960244e-05 0)
(0.0984488788 7.50028778e-05 0)
(0.0984502417 6.94842445e-05 0)
(0.0984548604 7.90037647e-05 0)
(0.0984590658 0.000103467698 0)
(0.0984595831 0.000140446115 0)
(0.098454029 0.000185544341 0)
(0.0984412858 0.000233340047 0)
(0.0984216089 0.00027858227 0)
(0.0983963974 0.000317313651 0)
(0.0983677006 0.00034758692 0)
(0.0983376282 0.000369572154 0)
(0.0983078449 0.000385069398 0)
(0.0982792835 0.000396651856 0)
(0.0982521215 0.000406774113 0)
(0.0982259677 0.000417144515 0)
(0.0982001496 0.000428508495 0)
(0.0981739785 0.000440803369 0)
(0.0981469169 0.000453514265 0)
(0.0981186258 0.000466033309 0)
(0.0980889268 0.000477887766 0)
(0.0980577295 0.000488803771 0)
(0.0980249703 0.000498653009 0)
(0.0979905834 0.000507359625 0)
(0.0979545022 0.000514828075 0)
(0.0979166755 0.000520915451 0)
(0.0978770867 0.000525440167 0)
(0.0978357641 0.000528205792 0)
(0.0977927855 0.000529022293 0)
(0.0977482772 0.000527717077 0)
(0.0977024113 0.000524137613 0)
(0.0976554049 0.000518151049 0)
(0.0976075184 0.000509643458 0)
(0.0975590545 0.00049852027 0)
(0.0975103557 0.000484707838 0)
(0.0974618021 0.000468155467 0)
(0.0974138078 0.000448837482 0)
(0.0973668182 0.000426755136 0)
(0.0973213078 0.000401938041 0)
(0.0972777791 0.000374444775 0)
(0.0972367627 0.000344361828 0)
(0.0971988163 0.000311799994 0)
(0.0971645242 0.000276888833 0)
(0.0971344921 0.000239767255 0)
(0.0971093313 0.000200573227 0)
(0.0970896263 0.000159442706 0)
(0.0970759015 0.00011651534 0)
(0.0970686072 7.19561424e-05 0)
(0.0970678166 2.60265739e-05 0)
(0.0970740114 -2.04105628e-05 0)
(0.0970887289 -6.71208816e-05 0)
(0.0971127315 -0.000114539751 0)
(0.0971458159 -0.00016257182 0)
(0.0971880521 -0.000210905226 0)
(0.0972395977 -0.000259235675 0)
(0.0973004614 -0.000307224607 0)
(0.0973705581 -0.000354497518 0)
(0.0974497265 -0.00040066395 0)
(0.0975377021 -0.000445320083 0)
(0.0976341131 -0.000488049371 0)
(0.0977384875 -0.000528429651 0)
(0.0978502592 -0.000566044566 0)
(0.0979687752 -0.000600497647 0)
(0.0980933055 -0.00063142749 0)
(0.0982230518 -0.000658521653 0)
(0.098357158 -0.000681527446 0)
(0.0984947215 -0.000700258895 0)
(0.0986348068 -0.000714600068 0)
(0.0987764607 -0.00072450556 0)
(0.0989187284 -0.000729998947 0)
(0.0990606707 -0.000731169723 0)
(0.0992013799 -0.00072816897 0)
(0.0993399946 -0.000721203748 0)
(0.0994757125 -0.000710530274 0)
(0.0996078006 -0.000696446017 0)
(0.0997356033 -0.000679281018 0)
(0.0998585473 -0.000659388777 0)
(0.0999761452 -0.000637137175 0)
(0.100087996 -0.000612899748 0)
(0.100193782 -0.000587047636 0)
(0.10029327 -0.000559942431 0)
(0.100386302 -0.000531929891 0)
(0.10047279 -0.000503334892 0)
(0.100552709 -0.000474456718 0)
(0.100626081 -0.000445562485 0)
(0.100692982 -0.000416882477 0)
(0.100753534 -0.000388610576 0)
(0.100807911 -0.000360907804 0)
(0.100856328 -0.000333906579 0)
(0.100899033 -0.000307714241 0)
(0.100936287 -0.000282404512 0)
(0.100968389 -0.000258003941 0)
(0.100995688 -0.000234526128 0)
(0.10101855 -0.000212003151 0)
(0.101037318 -0.000190468748 0)
(0.101052307 -0.000169942943 0)
(0.101063817 -0.000150417521 0)
(0.101072138 -0.000131866542 0)
(0.101077559 -0.000114257404 0)
(0.101080375 -9.75562394e-05 0)
(0.101080879 -8.17308814e-05 0)
(0.101079365 -6.67531508e-05 0)
(0.101076133 -5.26061084e-05 0)
(0.101071489 -3.93065812e-05 0)
(0.101065723 -2.69269118e-05 0)
(0.101059076 -1.56108184e-05 0)
(0.101051712 -5.60039744e-06 0)
(0.101043474 2.99052102e-06 0)
(0.10103398 1.03876613e-05 0)
(0.101023197 1.68805056e-05 0)
(0.101011394 2.26278934e-05 0)
(0.100998799 2.77127908e-05 0)
(0.100985546 3.22032723e-05 0)
(0.10097174 3.61630152e-05 0)
(0.100957479 3.96499779e-05 0)
(0.100942858 4.27151129e-05 0)
(0.100927971 4.54017719e-05 0)
(0.100912898 4.77468053e-05 0)
(0.100897712 4.97814853e-05 0)
(0.100882481 5.15316282e-05 0)
(0.100867261 5.30182158e-05 0)
(0.100852102 5.42587849e-05 0)
(0.100837046 5.52688489e-05 0)
(0.100822129 5.60629522e-05 0)
(0.100807381 5.6655359e-05 0)
(0.100792825 5.70603983e-05 0)
(0.100778484 5.72925095e-05 0)
(0.100764376 5.73661032e-05 0)
(0.100750517 5.72953473e-05 0)
(0.100736921 5.70939332e-05 0)
(0.100723602 5.67748438e-05 0)
(0.100710571 5.63501447e-05 0)
(0.100697839 5.58308215e-05 0)
(0.100685416 5.52266813e-05 0)
(0.100673309 5.45463241e-05 0)
(0.100661526 5.37971862e-05 0)
(0.100650072 5.29856465e-05 0)
(0.100638953 5.2117185e-05 0)
(0.100628171 5.11965702e-05 0)
(0.10061773 5.02280505e-05 0)
(0.100607632 4.92155278e-05 0)
(0.100597876 4.81626954e-05 0)
(0.100588463 4.70731285e-05 0)
(0.100579393 4.59503261e-05 0)
(0.100570667 4.47977075e-05 0)
(0.100562283 4.36185687e-05 0)
(0.100554242 4.2416013e-05 0)
(0.100546544 4.1192851e-05 0)
(0.100539191 3.99515255e-05 0)
(0.100532181 3.8693797e-05 0)
(0.100525525 3.74213143e-05 0)
(0.100519198 3.61314168e-05 0)
(0.100513308 3.48341066e-05 0)
(0.10050752 3.3466074e-05 0)
(0.100503131 3.22799268e-05 0)
(0.100496063 3.00038126e-05 0)
(0.100000568 1.08543916e-06 0)
(0.100002641 2.27777261e-05 0)
(0.100000934 6.61870576e-05 0)
(0.0999881592 0.000125196293 0)
(0.0999597925 0.0001917106 0)
(0.0999150282 0.000257671227 0)
(0.0998551755 0.000316027092 0)
(0.099782666 0.000361304936 0)
(0.0997008908 0.000389859322 0)
(0.0996139245 0.000400120707 0)
(0.0995259683 0.000392559283 0)
(0.099440908 0.000369053049 0)
(0.0993621737 0.000332052316 0)
(0.0992927557 0.000284323958 0)
(0.0992351133 0.000229545622 0)
(0.0991908206 0.000173135889 0)
(0.0991600557 0.000122347756 0)
(0.0991411466 8.51493387e-05 0)
(0.099130536 6.82539838e-05 0)
(0.099123368 7.51438679e-05 0)
(0.0991142482 0.000105073699 0)
(0.0990980251 0.000153377301 0)
(0.0990707949 0.000212622173 0)
(0.0990306448 0.000274208939 0)
(0.0989777287 0.000330045521 0)
(0.0989139598 0.000373739091 0)
(0.0988425629 0.000401073693 0)
(0.0987675023 0.000409989744 0)
(0.0986929198 0.000400325309 0)
(0.0986227481 0.000373480456 0)
(0.0985604905 0.000332146222 0)
(0.0985090622 0.000280178619 0)
(0.09847061 0.000222592074 0)
(0.0984462852 0.000165451143 0)
(0.0984359205 0.000115546843 0)
(0.0984377953 7.9717301e-05 0)
(0.0984487939 6.37050824e-05 0)
(0.0984646783 7.08971692e-05 0)
(0.0984804971 0.000101193913 0)
(0.0984914358 0.000150691704 0)
(0.0984937914 0.000212390203 0)
(0.0984856641 0.000277716987 0)
(0.0984671942 0.000338465253 0)
(0.0984403113 0.000388591019 0)
(0.0984080599 0.000425328795 0)
(0.0983737123 0.000449305895 0)
(0.0983399486 0.000463700385 0)
(0.0983083434 0.000472824343 0)
(0.0982792658 0.000480679551 0)
(0.0982521425 0.000489966261 0)
(0.0982259122 0.000501773387 0)
(0.0981994721 0.00051587387 0)
(0.0981719686 0.000531337079 0)
(0.0981428893 0.000547129386 0)
(0.098112001 0.000562483827 0)
(0.0980792236 0.000576990025 0)
(0.0980445186 0.000590489621 0)
(0.098007833 0.000602909973 0)
(0.0979690953 0.000614138305 0)
(0.0979282423 0.000623974157 0)
(0.097885248 0.0006321445 0)
(0.0978401429 0.000638344435 0)
(0.0977930177 0.000642273168 0)
(0.0977440212 0.000643653467 0)
(0.0976933554 0.000642236706 0)
(0.0976412732 0.000637800447 0)
(0.0975880748 0.000630146523 0)
(0.097534106 0.000619101934 0)
(0.0974797556 0.00060452164 0)
(0.0974254529 0.000586291564 0)
(0.0973716639 0.000564330668 0)
(0.0973188878 0.00053859177 0)
(0.0972676535 0.000509061176 0)
(0.097218516 0.000475757386 0)
(0.0971720524 0.000438728856 0)
(0.0971288579 0.000398050658 0)
(0.097089539 0.000353820758 0)
(0.0970547062 0.000306155473 0)
(0.0970249669 0.00025518664 0)
(0.0970009086 0.00020106591 0)
(0.0969830916 0.00014399295 0)
(0.0969721327 8.42634152e-05 0)
(0.0969690052 2.22466425e-05 0)
(0.0969743052 -4.16207856e-05 0)
(0.0969881 -0.000106832176 0)
(0.0970109142 -0.000173277928 0)
(0.0970433086 -0.000240668949 0)
(0.097085528 -0.000308567542 0)
(0.0971377323 -0.000376518472 0)
(0.0972000045 -0.000444018588 0)
(0.0972723167 -0.000510508797 0)
(0.0973545319 -0.000575395834 0)
(0.0974463987 -0.000638065624 0)
(0.0975475452 -0.000697894761 0)
(0.0976574809 -0.000754265814 0)
(0.0977756013 -0.000806583565 0)
(0.0979011934 -0.000854290984 0)
(0.0980334453 -0.000896884877 0)
(0.0981714573 -0.000933930374 0)
(0.0983142549 -0.000965073536 0)
(0.0984608055 -0.000990051488 0)
(0.0986100362 -0.00100869958 0)
(0.0987608539 -0.00102095521 0)
(0.0989121668 -0.00102685808 0)
(0.0990629048 -0.00102654707 0)
(0.0992120398 -0.00102025377 0)
(0.0993586029 -0.00100829347 0)
(0.0995016997 -0.000991053796 0)
(0.0996405226 -0.000968981994 0)
(0.0997743591 -0.000942571224 0)
(0.0999025977 -0.000912346603 0)
(0.10002473 -0.000878851539 0)
(0.100140351 -0.000842634817 0)
(0.100249156 -0.000804238786 0)
(0.100350933 -0.000764188987 0)
(0.100445563 -0.000722985199 0)
(0.100533004 -0.000681094368 0)
(0.100613287 -0.000638944624 0)
(0.100686507 -0.000596918173 0)
(0.100752813 -0.000555346394 0)
(0.100812401 -0.00051450927 0)
(0.100865505 -0.00047463683 0)
(0.100912397 -0.000435912504 0)
(0.100953383 -0.000398477917 0)
(0.100988815 -0.00036243325 0)
(0.101019052 -0.000327835943 0)
(0.101044437 -0.00029472293 0)
(0.101065308 -0.000263131224 0)
(0.101082018 -0.000233089298 0)
(0.101094931 -0.00020461117 0)
(0.101104397 -0.000177704211 0)
(0.101110733 -0.00015235542 0)
(0.101114237 -0.000128530097 0)
(0.101115202 -0.000106182974 0)
(0.101113916 -8.52716923e-05 0)
(0.101110656 -6.57813197e-05 0)
(0.10110567 -4.7704468e-05 0)
(0.101099161 -3.10312333e-05 0)
(0.101091275 -1.57580469e-05 0)
(0.101082055 -1.75570516e-06 0)
(0.101071699 1.09146588e-05 0)
(0.101060585 2.20495339e-05 0)
(0.101048799 3.17183091e-05 0)
(0.101036229 4.01856179e-05 0)
(0.101022907 4.76392472e-05 0)
(0.101008958 5.41824337e-05 0)
(0.100994495 5.98984668e-05 0)
(0.100979611 6.48677137e-05 0)
(0.100964391 6.91651261e-05 0)
(0.100948913 7.28578115e-05 0)
(0.100933254 7.60041571e-05 0)
(0.100917482 7.8655594e-05 0)
(0.100901661 8.08584799e-05 0)
(0.100885844 8.26543694e-05 0)
(0.100870081 8.40800896e-05 0)
(0.100854416 8.51684161e-05 0)
(0.100838887 8.59487943e-05 0)
(0.100823529 8.64478396e-05 0)
(0.100808368 8.66897881e-05 0)
(0.100793432 8.66969371e-05 0)
(0.100778739 8.64899876e-05 0)
(0.10076431 8.60882652e-05 0)
(0.100750158 8.55098508e-05 0)
(0.100736298 8.47716499e-05 0)
(0.100722741 8.38894163e-05 0)
(0.100709496 8.28777455e-05 0)
(0.100696572 8.17500621e-05 0)
(0.100683975 8.05186158e-05 0)
(0.100671713 7.91944982e-05 0)
(0.100659789 7.77876839e-05 0)
(0.100648209 7.63070937e-05 0)
(0.100636974 7.4760681e-05 0)
(0.100626087 7.31555306e-05 0)
(0.100615551 7.14979624e-05 0)
(0.100605364 6.97936327e-05 0)
(0.100595529 6.80476239e-05 0)
(0.100586044 6.62645152e-05 0)
(0.10057691 6.44484332e-05 0)
(0.100568126 6.26030769e-05 0)
(0.100559691 6.07317153e-05 0)
(0.100551605 5.88371604e-05 0)
(0.100543867 5.69216943e-05 0)
(0.100536478 5.4987015e-05 0)
(0.100529434 5.30338231e-05 0)
(0.100522745 5.10627118e-05 0)
(0.100516382 4.90681106e-05 0)
(0.10051045 4.70643556e-05 0)
(0.10050458 4.49580936e-05 0)
(0.100500113 4.31396925e-05 0)
(0.100492659 3.97433822e-05 0)
(0.100000595 -1.03567398e-06 0)
(0.100001571 1.91237728e-05 0)
(0.0999978163 6.55349825e-05 0)
(0.0999833631 0.000131687977 0)
(0.0999541956 0.00020771691 0)
(0.0999093729 0.000283640204 0)
(0.0998500089 0.00035099622 0)
(0.099778358 0.00040348438 0)
(0.0996975961 0.000436984439 0)
(0.0996115839 0.000449683962 0)
(0.0995243628 0.000442036986 0)
(0.099439716 0.000416074025 0)
(0.0993610054 0.00037445686 0)
(0.0992911678 0.000320192544 0)
(0.099232639 0.000257335199 0)
(0.0991870497 0.000191974731 0)
(0.0991547175 0.000132395808 0)
(0.0991342112 8.78049445e-05 0)
(0.0991222024 6.60768314e-05 0)
(0.099113732 7.15372426e-05 0)
(0.0991031545 0.000103702155 0)
(0.0990854484 0.000157446356 0)
(0.0990571289 0.000224355408 0)
(0.0990165777 0.000294603463 0)
(0.0989640098 0.000358788894 0)
(0.0989012214 0.000409315538 0)
(0.0988311934 0.000441086075 0)
(0.0987576084 0.000451573868 0)
(0.0986843781 0.000440520138 0)
(0.0986152849 0.000409500484 0)
(0.0985537456 0.00036155847 0)
(0.0985026274 0.000301026295 0)
(0.0984640586 0.000233508914 0)
(0.0984392026 0.000165842188 0)
(0.0984280056 0.000105750521 0)
(0.0984290171 6.10558796e-05 0)
(0.0984393364 3.83723971e-05 0)
(0.0984547558 4.15989618e-05 0)
(0.0984704084 7.09048316e-05 0)
(0.0984817295 0.000122384878 0)
(0.0984852272 0.000188435162 0)
(0.0984790028 0.000259290654 0)
(0.0984629903 0.000325294752 0)
(0.0984387966 0.000379127824 0)
(0.098409138 0.000417283849 0)
(0.0983770409 0.000440350891 0)
(0.098345069 0.000452090507 0)
(0.0983148085 0.000457745329 0)
(0.0982867299 0.000462249107 0)
(0.098260393 0.000468961071 0)
(0.0982348486 0.000479241098 0)
(0.0982090532 0.000492794269 0)
(0.0981821558 0.000508433223 0)
(0.0981536051 0.000524841449 0)
(0.0981231125 0.000541051087 0)
(0.0980905455 0.000556563677 0)
(0.0980558272 0.000571217206 0)
(0.0980188804 0.000584969038 0)
(0.0979796205 0.000597728595 0)
(0.0979379772 0.000609291539 0)
(0.0978939211 0.000619356802 0)
(0.0978474821 0.000627578461 0)
(0.0977987565 0.000633612203 0)
(0.0977479047 0.000637140086 0)
(0.0976951462 0.00063787607 0)
(0.0976407536 0.000635561876 0)
(0.0975850502 0.000629963398 0)
(0.0975284074 0.000620870861 0)
(0.0974712419 0.000608101733 0)
(0.0974140111 0.000591504276 0)
(0.0973572096 0.000570960368 0)
(0.0973013638 0.000546387191 0)
(0.0972470285 0.000517737966 0)
(0.097194783 0.000485001956 0)
(0.0971452282 0.000448203934 0)
(0.0970989837 0.000407403235 0)
(0.0970566844 0.000362692516 0)
(0.0970189765 0.000314197717 0)
(0.0969865136 0.000262079871 0)
(0.0969599615 0.000206537059 0)
(0.0969400085 0.000147819472 0)
(0.0969272721 8.62132631e-05 0)
(0.0969219109 2.19757239e-05 0)
(0.0969244842 -4.47043251e-05 0)
(0.0969361456 -0.000113503195 0)
(0.0969574527 -0.000183997914 0)
(0.0969886365 -0.000255811326 0)
(0.097030001 -0.000328488605 0)
(0.0970818001 -0.000401499023 0)
(0.0971441657 -0.00047426052 0)
(0.0972171134 -0.000546141561 0)
(0.0973005441 -0.000616470203 0)
(0.0973942321 -0.000684546203 0)
(0.0974978189 -0.0007496533 0)
(0.0976108124 -0.000811074892 0)
(0.0977325879 -0.000868112874 0)
(0.0978623937 -0.00092010823 0)
(0.0979993597 -0.000966462131 0)
(0.0981425103 -0.00100665575 0)
(0.0982907814 -0.00104026722 0)
(0.0984430401 -0.00106698463 0)
(0.0985981076 -0.00108661442 0)
(0.0987547833 -0.00109908521 0)
(0.0989118703 -0.00110444722 0)
(0.099068199 -0.00110286757 0)
(0.0992226507 -0.00109462204 0)
(0.0993741772 -0.00108008365 0)
(0.0995218182 -0.00105970869 0)
(0.0996647141 -0.00103402105 0)
(0.099802116 -0.00100359534 0)
(0.0999333908 -0.000969039967 0)
(0.100058023 -0.00093098056 0)
(0.100175613 -0.000890044579 0)
(0.100285873 -0.000846847451 0)
(0.10038862 -0.000801980644 0)
(0.100483767 -0.000756001787 0)
(0.100571314 -0.000709426888 0)
(0.100651335 -0.000662724621 0)
(0.100723971 -0.000616312188 0)
(0.100789417 -0.000570552885 0)
(0.100847917 -0.000525755418 0)
(0.10089976 -0.000482174168 0)
(0.100945266 -0.000440011318 0)
(0.100984779 -0.000399421089 0)
(0.101018662 -0.00036052104 0)
(0.101047287 -0.000323406596 0)
(0.101071027 -0.00028814214 0)
(0.10109026 -0.000254755739 0)
(0.101105355 -0.000223251902 0)
(0.101116652 -0.000193620604 0)
(0.101124482 -0.000165850258 0)
(0.101129184 -0.000139915553 0)
(0.101131085 -0.000115773849 0)
(0.101130487 -9.33710111e-05 0)
(0.101127648 -7.26438502e-05 0)
(0.101122824 -5.3505848e-05 0)
(0.101116306 -3.58779048e-05 0)
(0.101108398 -1.96734997e-05 0)
(0.101099527 -4.86977613e-06 0)
(0.101089859 8.46861591e-06 0)
(0.101079176 2.05791376e-05 0)
(0.101067469 3.15252169e-05 0)
(0.101054895 4.12522398e-05 0)
(0.101041554 4.98218586e-05 0)
(0.10102753 5.73533827e-05 0)
(0.101012929 6.39484654e-05 0)
(0.10099786 6.96913568e-05 0)
(0.100982417 7.46599803e-05 0)
(0.100966683 7.89278588e-05 0)
(0.100950735 8.25633702e-05 0)
(0.100934646 8.562814e-05 0)
(0.100918485 8.81765686e-05 0)
(0.100902314 9.02567589e-05 0)
(0.100886186 9.19113308e-05 0)
(0.100870151 9.31780442e-05 0)
(0.100854249 9.40907045e-05 0)
(0.100838514 9.46800931e-05 0)
(0.100822977 9.49746159e-05 0)
(0.100807662 9.50007142e-05 0)
(0.100792589 9.47831314e-05 0)
(0.100777776 9.43450454e-05 0)
(0.10076324 9.37081043e-05 0)
(0.100748993 9.28924262e-05 0)
(0.100735047 9.19165973e-05 0)
(0.100721413 9.07976716e-05 0)
(0.100708099 8.95511783e-05 0)
(0.100695114 8.81911448e-05 0)
(0.100682464 8.67301436e-05 0)
(0.100670155 8.51793656e-05 0)
(0.100658192 8.35487196e-05 0)
(0.100646577 8.18469514e-05 0)
(0.100635315 8.008178e-05 0)
(0.100624405 7.826004e-05 0)
(0.10061385 7.63878195e-05 0)
(0.100603649 7.44705825e-05 0)
(0.100593803 7.25132684e-05 0)
(0.10058431 7.05203586e-05 0)
(0.100575169 6.84959128e-05 0)
(0.100566379 6.64435759e-05 0)
(0.100557939 6.4366556e-05 0)
(0.100549847 6.22675823e-05 0)
(0.100542103 6.01488276e-05 0)
(0.100534707 5.80118725e-05 0)
(0.100527654 5.58573184e-05 0)
(0.100520954 5.36859539e-05 0)
(0.100514575 5.14922692e-05 0)
(0.100508624 4.92944848e-05 0)
(0.100502743 4.69930672e-05 0)
(0.100498266 4.50270224e-05 0)
(0.100490955 4.13836221e-05 0)
(0.100000623 -1.78866127e-06 0)
(0.100002689 2.29379346e-05 0)
(0.100001035 8.19308749e-05 0)
(0.0999886014 0.000167030504 0)
(0.0999606687 0.000265366222 0)
(0.0999160476 0.000363823009 0)
(0.0998557716 0.000451356049 0)
(0.0997821436 0.000519811682 0)
(0.0996985088 0.000563871042 0)
(0.0996090042 0.000581158733 0)
(0.099518036 0.000572186151 0)
(0.0994298013 0.00053949329 0)
(0.0993480719 0.000486452606 0)
(0.0992761381 0.000416887662 0)
(0.0992166745 0.000335952799 0)
(0.0991713785 0.000251400029 0)
(0.0991404408 0.000173803072 0)
(0.0991221123 0.000115014922 0)
(0.099112734 8.52647231e-05 0)
(0.0991072995 9.02429222e-05 0)
(0.0991001834 0.000129490165 0)
(0.0990859533 0.000196566421 0)
(0.0990603589 0.000280723844 0)
(0.0990211157 0.000369361503 0)
(0.098968131 0.000450445206 0)
(0.0989032649 0.000514283356 0)
(0.0988298315 0.000554401987 0)
(0.0987520035 0.000567612369 0)
(0.0986742566 0.000553578218 0)
(0.0986009492 0.000514225684 0)
(0.0985360376 0.000453273815 0)
(0.0984828579 0.0003760334 0)
(0.0984438967 0.000289427864 0)
(0.0984205044 0.000201986845 0)
(0.0984125618 0.000123481824 0)
(0.0984182133 6.39427189e-05 0)
(0.0984339701 3.21325042e-05 0)
(0.0984552658 3.34818198e-05 0)
(0.0984770832 6.83979466e-05 0)
(0.0984943926 0.000131761575 0)
(0.0985029659 0.00021358649 0)
(0.0985004086 0.000301337224 0)
(0.0984865637 0.000382769591 0)
(0.0984632629 0.000448658953 0)
(0.0984336174 0.000494621632 0)
(0.0984010841 0.000521450097 0)
(0.0983685908 0.000533947798 0)
(0.0983379615 0.000538796456 0)
(0.0983097608 0.000542296254 0)
(0.0982835226 0.000548758968 0)
(0.0982581959 0.00055995778 0)
(0.0982326068 0.000575551967 0)
(0.0982057819 0.000594048005 0)
(0.0981770743 0.000613770343 0)
(0.098146129 0.000633475746 0)
(0.0981127695 0.000652515715 0)
(0.0980768879 0.0006706743 0)
(0.0980383831 0.000687894828 0)
(0.0979971515 0.000704066185 0)
(0.0979531085 0.000718936253 0)
(0.0979062172 0.000732130689 0)
(0.0978565082 0.000743217029 0)
(0.0978040857 0.000751762873 0)
(0.0977491254 0.000757366129 0)
(0.0976918686 0.00075966114 0)
(0.0976326163 0.000758315101 0)
(0.0975717255 0.000753024542 0)
(0.0975096055 0.000743516019 0)
(0.0974467142 0.000729550053 0)
(0.0973835546 0.000710925539 0)
(0.0973206697 0.000687482698 0)
(0.0972586382 0.000659104091 0)
(0.0971980693 0.000625714058 0)
(0.0971395979 0.00058727734 0)
(0.0970838794 0.000543797387 0)
(0.0970315844 0.000495314711 0)
(0.0969833945 0.000441905633 0)
(0.0969399969 0.000383681682 0)
(0.09690208 0.000320789209 0)
(0.0968703304 0.000253409409 0)
(0.0968454099 0.00018175029 0)
(0.0968279598 0.000106040343 0)
(0.0968188825 2.66004767e-05 0)
(0.0968188837 -5.59273646e-05 0)
(0.0968283055 -0.000141091632 0)
(0.0968477127 -0.000228519483 0)
(0.0968776757 -0.000317683529 0)
(0.0969185964 -0.000407967325 0)
(0.0969707728 -0.000498697289 0)
(0.0970344039 -0.000589132994 0)
(0.097109568 -0.00067846761 0)
(0.0971962088 -0.000765841832 0)
(0.0972941239 -0.000850360938 0)
(0.0974029558 -0.000931113577 0)
(0.0975221872 -0.00100719368 0)
(0.0976511414 -0.00107772425 0)
(0.0977889879 -0.0011418818 0)
(0.0979347532 -0.00119892051 0)
(0.0980873361 -0.00124819513 0)
(0.098245529 -0.00128918141 0)
(0.0984080421 -0.00132149283 0)
(0.098573531 -0.00134489249 0)
(0.0987406273 -0.00135929939 0)
(0.0989079684 -0.00136478874 0)
(0.0990742283 -0.0013615862 0)
(0.0992381447 -0.00135005697 0)
(0.0993985434 -0.00133069017 0)
(0.0995543591 -0.00130407995 0)
(0.0997046495 -0.00127090429 0)
(0.0998486063 -0.00123190275 0)
(0.0999855601 -0.00118785413 0)
(0.100114981 -0.00113955514 0)
(0.100236476 -0.00108780072 0)
(0.100349779 -0.00103336659 0)
(0.100454747 -0.000976994499 0)
(0.100551344 -0.000919380132 0)
(0.100639629 -0.000861163824 0)
(0.100719747 -0.000802923819 0)
(0.100791911 -0.000745171645 0)
(0.100856394 -0.00068834976 0)
(0.100913514 -0.000632832297 0)
(0.100963628 -0.000578928239 0)
(0.101007121 -0.000526885858 0)
(0.101044396 -0.0004768979 0)
(0.10107587 -0.000429107171 0)
(0.101101966 -0.000383612356 0)
(0.1011231 -0.000340473043 0)
(0.101139682 -0.000299716528 0)
(0.101152107 -0.000261344365 0)
(0.101160757 -0.000225333898 0)
(0.101166001 -0.000191631002 0)
(0.101168189 -0.000160165391 0)
(0.101167654 -0.000130859749 0)
(0.101164714 -0.000103631142 0)
(0.101159692 -7.83913038e-05 0)
(0.101152885 -5.50402646e-05 0)
(0.10114454 -3.35001677e-05 0)
(0.101134796 -1.37604073e-05 0)
(0.101123624 4.23249713e-06 0)
(0.101111312 2.03850509e-05 0)
(0.101098208 3.47547623e-05 0)
(0.101084355 4.75195336e-05 0)
(0.101069836 5.88107772e-05 0)
(0.101054742 6.87427057e-05 0)
(0.10103915 7.74409942e-05 0)
(0.101023144 8.50245866e-05 0)
(0.101006811 9.15967809e-05 0)
(0.100990231 9.72496869e-05 0)
(0.100973477 0.000102068105 0)
(0.100956616 0.000106130433 0)
(0.100939707 0.000109508288 0)
(0.100922804 0.00011226667 0)
(0.100905954 0.000114464777 0)
(0.100889202 0.000116156422 0)
(0.100872586 0.000117390024 0)
(0.100856142 0.000118208897 0)
(0.100839903 0.000118651854 0)
(0.100823896 0.000118753844 0)
(0.100808147 0.000118546511 0)
(0.100792677 0.000118058726 0)
(0.100777502 0.000117317031 0)
(0.100762639 0.000116345949 0)
(0.100748098 0.000115168184 0)
(0.100733889 0.000113804742 0)
(0.10072002 0.000112275018 0)
(0.100706498 0.000110596852 0)
(0.100693328 0.000108786582 0)
(0.100680512 0.000106859099 0)
(0.100668055 0.000104827907 0)
(0.100655957 0.000102705192 0)
(0.100644222 0.000100501905 0)
(0.100632849 9.82278381e-05 0)
(0.10062184 9.58917189e-05 0)
(0.100611193 9.35012881e-05 0)
(0.100600909 9.10633865e-05 0)
(0.100590986 8.85840347e-05 0)
(0.100581424 8.60685061e-05 0)
(0.100572222 8.3521391e-05 0)
(0.100563377 8.09466458e-05 0)
(0.100554889 7.83476222e-05 0)
(0.100546755 7.57270783e-05 0)
(0.100538973 7.30871528e-05 0)
(0.100531542 7.04293978e-05 0)
(0.100524458 6.77543894e-05 0)
(0.100517727 6.50632558e-05 0)
(0.100511318 6.23498186e-05 0)
(0.100505334 5.96373824e-05 0)
(0.100499399 5.68052247e-05 0)
(0.100494877 5.43914308e-05 0)
(0.100487319 4.99277315e-05 0)
(0.10000064 -4.4027014e-06 0)
(0.100002575 2.06146094e-05 0)
(0.100000597 8.70432034e-05 0)
(0.0999878731 0.000185320939 0)
(0.0999596875 0.000299909037 0)
(0.0999147667 0.00041499969 0)
(0.0998541345 0.000517535424 0)
(0.0997800749 0.000598070292 0)
(0.0996958885 0.000650467819 0)
(0.0996056681 0.000671906215 0)
(0.0995137877 0.000662811909 0)
(0.0994244278 0.000625918373 0)
(0.0993413576 0.00056493916 0)
(0.0992678846 0.00048415992 0)
(0.0992067403 0.000389464398 0)
(0.099159742 0.000289814074 0)
(0.0991272921 0.000197549226 0)
(0.0991079109 0.000126603893 0)
(0.099098037 8.91666242e-05 0)
(0.0990923735 9.22235642e-05 0)
(0.0990848967 0.000135507521 0)
(0.0990701275 0.000211635103 0)
(0.0990440565 0.000308109145 0)
(0.0990045923 0.000410223327 0)
(0.0989516632 0.000503895168 0)
(0.0988870227 0.000577740854 0)
(0.0988138298 0.000624113765 0)
(0.0987361231 0.000639206731 0)
(0.0986583062 0.000622547715 0)
(0.0985847295 0.000576289024 0)
(0.0985193831 0.000504638232 0)
(0.0984656535 0.000413622367 0)
(0.0984260832 0.00031113909 0)
(0.0984021175 0.000206994422 0)
(0.098393851 0.000112516181 0)
(0.0983999396 3.94106271e-05 0)
(0.0984173321 -2.31899521e-06 0)
(0.0984411655 -6.10204985e-06 0)
(0.098465751 2.90285676e-05 0)
(0.0984856316 9.70704439e-05 0)
(0.0984966298 0.000186982414 0)
(0.0984965876 0.000284427494 0)
(0.0984853479 0.000374949559 0)
(0.0984646103 0.000447494944 0)
(0.0984373726 0.000496694156 0)
(0.0984070484 0.000523352057 0)
(0.0983765862 0.000533132636 0)
(0.0983478606 0.000534033758 0)
(0.0983214808 0.000533661615 0)
(0.0982969941 0.000537262439 0)
(0.0982733269 0.000547021935 0)
(0.0982492564 0.000562553081 0)
(0.098223749 0.000582050966 0)
(0.0981960985 0.000603475024 0)
(0.0981658985 0.000625306394 0)
(0.0981329297 0.000646755414 0)
(0.0980970493 0.000667568596 0)
(0.0980581273 0.000687694487 0)
(0.098016037 0.000707018923 0)
(0.0979706771 0.000725255298 0)
(0.0979220019 0.000741965126 0)
(0.097870041 0.000756635804 0)
(0.0978149069 0.000768752286 0)
(0.0977567917 0.000777835163 0)
(0.0976959615 0.000783448855 0)
(0.0976327498 0.000785196412 0)
(0.0975675527 0.000782714362 0)
(0.0975008241 0.000775672776 0)
(0.0974330702 0.00076377937 0)
(0.0973648436 0.000746784401 0)
(0.0972967357 0.000724484154 0)
(0.0972293707 0.000696722471 0)
(0.0971633993 0.000663390756 0)
(0.0970994938 0.000624427115 0)
(0.097038345 0.000579815032 0)
(0.0969806586 0.00052958184 0)
(0.0969271535 0.00047379729 0)
(0.0968785583 0.000412572698 0)
(0.0968356087 0.000346061279 0)
(0.0967990438 0.000274460794 0)
(0.0967696061 0.000198015562 0)
(0.0967480305 0.000117033512 0)
(0.096734921 3.18826076e-05 0)
(0.096730958 -5.71908336e-05 0)
(0.0967369748 -0.000149742933 0)
(0.0967536335 -0.000245225274 0)
(0.096781469 -0.000343059353 0)
(0.0968209701 -0.000442575959 0)
(0.0968725389 -0.000543007039 0)
(0.09693646 -0.000643496354 0)
(0.0970128841 -0.000743107309 0)
(0.0971018135 -0.000840834008 0)
(0.0972030864 -0.000935617648 0)
(0.0973163632 -0.00102636786 0)
(0.0974411184 -0.00111198916 0)
(0.0975766367 -0.00119141148 0)
(0.0977220169 -0.00126362315 0)
(0.0978761823 -0.00132770424 0)
(0.0980378987 -0.00138285793 0)
(0.0982057991 -0.00142843788 0)
(0.0983784152 -0.00146396989 0)
(0.098554212 -0.00148916665 0)
(0.0987316263 -0.00150393491 0)
(0.0989091051 -0.00150837491 0)
(0.0990851427 -0.00150277229 0)
(0.0992583147 -0.0014875833 0)
(0.0994273073 -0.00146341434 0)
(0.0995909407 -0.00143099718 0)
(0.0997481868 -0.00139116152 0)
(0.0998981792 -0.00134480641 0)
(0.100040218 -0.00129287193 0)
(0.10017377 -0.0012363125 0)
(0.100298459 -0.00117607266 0)
(0.100414059 -0.0011130661 0)
(0.100520479 -0.00104815834 0)
(0.100617752 -0.000982153076 0)
(0.100706012 -0.000915782278 0)
(0.100785484 -0.000849699676 0)
(0.100856465 -0.000784477389 0)
(0.100919311 -0.000720605216 0)
(0.100974421 -0.000658492448 0)
(0.10102223 -0.000598471604 0)
(0.101063191 -0.00054080363 0)
(0.101097774 -0.000485684375 0)
(0.101126448 -0.000433252204 0)
(0.101149682 -0.000383596028 0)
(0.101167933 -0.000336761706 0)
(0.101181645 -0.000292757507 0)
(0.101191244 -0.000251560131 0)
(0.101197136 -0.000213120418 0)
(0.101199706 -0.000177368962 0)
(0.10119932 -0.000144223675 0)
(0.101196319 -0.000113593918 0)
(0.101191019 -8.53827541e-05 0)
(0.101183697 -5.94861293e-05 0)
(0.101174596 -3.58103206e-05 0)
(0.101163905 -1.42453702e-05 0)
(0.101151898 5.35576978e-06 0)
(0.101138884 2.30812725e-05 0)
(0.101125035 3.91166388e-05 0)
(0.101110446 5.34826624e-05 0)
(0.101095189 6.62711464e-05 0)
(0.10107935 7.7588177e-05 0)
(0.101063021 8.75343112e-05 0)
(0.101046291 9.62156155e-05 0)
(0.101029241 0.000103738741 0)
(0.101011947 0.000110203908 0)
(0.100994484 0.000115704289 0)
(0.100976917 0.000120326792 0)
(0.100959309 0.000124152167 0)
(0.100941718 0.000127254796 0)
(0.100924198 0.000129702673 0)
(0.100906798 0.000131557904 0)
(0.100889559 0.000132877429 0)
(0.100872518 0.000133713555 0)
(0.100855705 0.000134114258 0)
(0.100839145 0.000134123373 0)
(0.100822858 0.000133780799 0)
(0.100806862 0.000133122741 0)
(0.100791173 0.000132182005 0)
(0.100775804 0.000130988304 0)