/*--------------------------------*- C++ -*----------------------------------*\
| =========                 |                                                 |
| \\      /  F ield         | OpenFOAM: The Open Source CFD Toolbox           |
|  \\    /   O peration     | Version:  v2012                                 |
|   \\  /    A nd           | Website:  www.openfoam.com                      |
|    \\/     M anipulation  |                                                 |
\*---------------------------------------------------------------------------*/
FoamFile
{
    version     2.0;
    format      ascii;
    class       surfaceVectorField;
    location    "2.54";
    object      Uf;
}
// * * * * * * * * * * * * * * * * * * * * * * * * * * * * * * * * * * * * * //

dimensions      [0 1 -1 0 0 0 0];


internalField   nonuniform List<vector> 
56481
(
(0.100000164 9.52104005e-06 0)
(0.100000516 1.95107313e-06 0)
(0.0999963832 2.93955524e-05 0)
(0.100001301 2.05605564e-05 0)
(0.0999837868 5.86533156e-05 0)
(0.0999970426 5.55577532e-05 0)
(0.0999589078 9.38173102e-05 0)
(0.0999816168 0.000102359657 0)
(0.0999202321 0.000130880912 0)
(0.0999515057 0.000154850657 0)
(0.099868042 0.000165871145 0)
(0.0999062041 0.000206928912 0)
(0.099804035 0.000195196638 0)
(0.0998469515 0.000253107534 0)
(0.0997309021 0.000216027643 0)
(0.099776043 0.000288965481 0)
(0.0996519345 0.000226645159 0)
(0.0996966827 0.000311479372 0)
(0.0995706443 0.000226622385 0)
(0.0996126745 0.00031931778 0)
(0.099490428 0.000216659629 0)
(0.0995279017 0.000312838877 0)
(0.0994143537 0.000198135216 0)
(0.0994459372 0.000293579809 0)
(0.0993450915 0.000172746131 0)
(0.0993699242 0.000263572861 0)
(0.0992848675 0.000142566701 0)
(0.0993025898 0.000225121664 0)
(0.0992352891 0.000110428645 0)
(0.0992461597 0.000181259186 0)
(0.0991969923 8.01474878e-05 0)
(0.0992020389 0.000136394352 0)
(0.0991692427 5.61879552e-05 0)
(0.0991703323 9.63662016e-05 0)
(0.0991497209 4.27217113e-05 0)
(0.0991494434 6.75508763e-05 0)
(0.0991346397 4.24757865e-05 0)
(0.0991360573 5.52718237e-05 0)
(0.0991193482 5.60367335e-05 0)
(0.0991255587 6.22053533e-05 0)
(0.0990993668 8.1810135e-05 0)
(0.0991127581 8.76460989e-05 0)
(0.099071287 0.000116356337 0)
(0.0990929357 0.000127825181 0)
(0.0990332652 0.000155033561 0)
(0.0990628513 0.000176782967 0)
(0.0989851291 0.000192906559 0)
(0.0990211402 0.000227624189 0)
(0.0989281646 0.000225574307 0)
(0.0989681833 0.000273858348 0)
(0.0988647184 0.000249646083 0)
(0.0989058538 0.000310303858 0)
(0.0987977438 0.00026292446 0)
(0.0988371461 0.000333448577 0)
(0.0987303887 0.000264444933 0)
(0.0987656328 0.000341483996 0)
(0.098665694 0.000254429573 0)
(0.0986949631 0.000334171799 0)
(0.0986064095 0.000234180512 0)
(0.0986285609 0.000312626775 0)
(0.0985548796 0.000205956188 0)
(0.0985694653 0.000279116359 0)
(0.0985129389 0.000172861219 0)
(0.0985201918 0.000236937848 0)
(0.0984818051 0.000138698179 0)
(0.0984825893 0.000190365871 0)
(0.0984616262 0.00010772922 0)
(0.0984576301 0.000144503512 0)
(0.098451538 8.4299451e-05 0)
(0.0984450822 0.000104879957 0)
(0.0984495499 7.22435612e-05 0)
(0.0984433371 7.71531383e-05 0)
(0.0984525235 7.42440046e-05 0)
(0.0984495178 6.61445811e-05 0)
(0.0984569291 9.12357312e-05 0)
(0.0984597694 7.42682663e-05 0)
(0.0984592939 0.000121956906 0)
(0.0984697815 0.000101361427 0)
(0.0984567781 0.000162995228 0)
(0.0984755095 0.000144267012 0)
(0.0984476316 0.000209442194 0)
(0.0984739102 0.000197319279 0)
(0.0984314259 0.000255961159 0)
(0.0984634749 0.000253551093 0)
(0.0984089877 0.000297947961 0)
(0.0984444016 0.000306250317 0)
(0.098382039 0.000332450286 0)
(0.0984183543 0.000350421464 0)
(0.0983526579 0.000358579537 0)
(0.0983878802 0.000383706988 0)
(0.0983227314 0.000377320776 0)
(0.0983556703 0.000406501289 0)
(0.0982935588 0.000390860627 0)
(0.0983238967 0.000421287527 0)
(0.0982656962 0.000401712985 0)
(0.0982938135 0.000431501979 0)
(0.0982390375 0.000411959314 0)
(0.0982656937 0.00044036744 0)
(0.0982130512 0.000422826505 0)
(0.0982390551 0.000450085213 0)
(0.0981870568 0.000434655932 0)
(0.0982130309 0.000461572493 0)
(0.0981604413 0.000447158817 0)
(0.0981867253 0.000474686814 0)
(0.098132766 0.000459773787 0)
(0.0981594427 0.000488708784 0)
(0.0981037725 0.000471960538 0)
(0.0981307575 0.000502820598 0)
(0.0980733261 0.000483345769 0)
(0.0981004639 0.000516404237 0)
(0.0980413499 0.00049372839 0)
(0.0980684765 0.000529118308 0)
(0.0980077792 0.000503006317 0)
(0.0980347445 0.000540819488 0)
(0.0979725479 0.00051109385 0)
(0.0979992082 0.000551433249 0)
(0.0979355969 0.000517871763 0)
(0.0979617987 0.000560855094 0)
(0.0978968923 0.000523177809 0)
(0.0979224589 0.00056891301 0)
(0.0978564399 0.00052682298 0)
(0.0978811673 0.000575379347 0)
(0.0978142929 0.000528614043 0)
(0.0978379535 0.000580003075 0)
(0.0977705531 0.000528369685 0)
(0.0977929016 0.000582538392 0)
(0.0977253695 0.000525927345 0)
(0.0977461492 0.00058275939 0)
(0.0976789366 0.000521144331 0)
(0.0976978834 0.000580463032 0)
(0.0976314932 0.000513897254 0)
(0.097648339 0.000575468338 0)
(0.0975833204 0.000504081864 0)
(0.0975977966 0.000567615307 0)
(0.0975347409 0.000491614053 0)
(0.0975465802 0.000556765702 0)
(0.0974861156 0.000476431653 0)
(0.0974950557 0.000542805336 0)
(0.0974378415 0.000458496474 0)
(0.0974436275 0.00052564667 0)
(0.0973903483 0.000437796308 0)
(0.0973927359 0.000505230935 0)
(0.0973440959 0.000414346589 0)
(0.097342853 0.000481529456 0)
(0.0972995726 0.000388191408 0)
(0.0972944806 0.000454544101 0)
(0.0972572949 0.0003594033 0)
(0.0972481475 0.000424306736 0)
(0.0972178075 0.000328080912 0)
(0.0972044075 0.000390877394 0)
(0.0971816831 0.000294344413 0)
(0.0971638371 0.000354340864 0)
(0.0971495173 0.000258328042 0)
(0.0971270316 0.000314806487 0)
(0.0971219162 0.000220170243 0)
(0.0970945991 0.00027240419 0)
(0.0970994758 0.000180007967 0)
(0.0970671491 0.00022727984 0)
(0.097082755 0.000137979021 0)
(0.0970452674 0.000179597707 0)
(0.0970722375 9.42357433e-05 0)
(0.0970294966 0.000129556178 0)
(0.0970682404 4.89913582e-05 0)
(0.09702037 7.74532513e-05 0)
(0.0970707875 2.80800552e-06 0)
(0.0970184109 2.37600912e-05 0)
(0.0970813049 -4.37657242e-05 0)
(0.0970241583 -3.17020029e-05 0)
(0.0971007283 -9.08303143e-05 0)
(0.0970384145 -8.81127966e-05 0)
(0.097129209 -0.000138555788 0)
(0.0970618228 -0.000145472707 0)
(0.0971668579 -0.000186738521 0)
(0.0970945622 -0.000203589527 0)
(0.0972137596 -0.000235070451 0)
(0.09713679 -0.000262107046 0)
(0.0972699627 -0.000283230141 0)
(0.097188665 -0.000320664973 0)
(0.09733544 -0.000330861064 0)
(0.097250233 -0.000378839311 0)
(0.0974100736 -0.000377580732 0)
(0.0973214374 -0.000436157113 0)
(0.0974936479 -0.000422992016 0)
(0.0974021292 -0.000492121268 0)
(0.0975858445 -0.000466684729 0)
(0.0974920504 -0.000546216341 0)
(0.0976862421 -0.000508239509 0)
(0.0975908292 -0.000597915151 0)
(0.0977943216 -0.000547237109 0)
(0.0976979842 -0.000646690717 0)
(0.0979094733 -0.000583271108 0)
(0.0978129302 -0.000692030252 0)
(0.0980310055 -0.000615962567 0)
(0.0979349843 -0.000733450358 0)
(0.0981581539 -0.000644974571 0)
(0.0980633754 -0.000770512644 0)
(0.0982900909 -0.000670024551 0)
(0.0981972546 -0.000802838102 0)
(0.0984259368 -0.00069089317 0)
(0.0983357065 -0.000830118952 0)
(0.0985647726 -0.000707429481 0)
(0.0984777635 -0.00085212732 0)
(0.0987056533 -0.000719552814 0)
(0.0986224215 -0.000868720558 0)
(0.0988476247 -0.000727252254 0)
(0.0987686573 -0.000879843451 0)
(0.0989897395 -0.000730584335 0)
(0.0989154476 -0.00088552759 0)
(0.0991310741 -0.000729669347 0)
(0.0990617878 -0.000885888217 0)
(0.0992707437 -0.00072468636 0)
(0.0992067098 -0.000881118783 0)
(0.0994079164 -0.000715867011 0)
(0.0993492987 -0.000871483489 0)
(0.0995418244 -0.000703488146 0)
(0.0994887061 -0.000857308095 0)
(0.0996717734 -0.000687863517 0)
(0.0996241616 -0.000838969423 0)
(0.099797149 -0.000669334898 0)
(0.0997549812 -0.000816884007 0)
(0.0999174209 -0.000648262976 0)
(0.0998805725 -0.000791496389 0)
(0.100032145 -0.000625018461 0)
(0.100000438 -0.000763267562 0)
(0.100140962 -0.000599973693 0)
(0.100114173 -0.000732663991 0)
(0.100243597 -0.000573495033 0)
(0.100221469 -0.000700147512 0)
(0.100339853 -0.00054593616 0)
(0.100322102 -0.000666166412 0)
(0.100429609 -0.000517632393 0)
(0.100415932 -0.00063114767 0)
(0.100512805 -0.000488895805 0)
(0.100502897 -0.000595490829 0)
(0.100589444 -0.0004600096 0)
(0.100582998 -0.000559562921 0)
(0.100659578 -0.000431222482 0)
(0.100656294 -0.000523692543 0)
(0.100723306 -0.000402746526 0)
(0.100722897 -0.000488166011 0)
(0.100780773 -0.00037475919 0)
(0.100782967 -0.000453225946 0)
(0.100832173 -0.00034740719 0)
(0.100836708 -0.000419069843 0)
(0.100877734 -0.000320810411 0)
(0.100884363 -0.000385848438 0)
(0.100917704 -0.000295059377 0)
(0.100926208 -0.00035366084 0)
(0.100952367 -0.000270204226 0)
(0.100962551 -0.000322589898 0)
(0.100982055 -0.000246265036 0)
(0.10099372 -0.000292740154 0)
(0.101007131 -0.00022326464 0)
(0.101020062 -0.000264171644 0)
(0.101027943 -0.000201235949 0)
(0.101041929 -0.000236907576 0)
(0.101044819 -0.000180205847 0)
(0.101059668 -0.000210966377 0)
(0.101058068 -0.000160180232 0)
(0.101073619 -0.000186351141 0)
(0.101067978 -0.000141142031 0)
(0.101084107 -0.00016304457 0)
(0.101074842 -0.000123061974 0)
(0.101091435 -0.000141025775 0)
(0.101078953 -0.000105906822 0)
(0.101095898 -0.000120265582 0)
(0.101080605 -8.96435597e-05 0)
(0.101097788 -0.000100728167 0)
(0.101080092 -7.42420167e-05 0)
(0.101097397 -8.23775191e-05 0)
(0.101077712 -5.96796296e-05 0)
(0.10109501 -6.51914133e-05 0)
(0.101073773 -4.59563442e-05 0)
(0.101090901 -4.9162745e-05 0)
(0.101068579 -3.31167471e-05 0)
(0.101085325 -3.43010934e-05 0)
(0.10106241 -2.12688651e-05 0)
(0.101078499 -2.06464998e-05 0)
(0.101055457 -1.06056079e-05 0)
(0.101070565 -8.24006386e-06 0)
(0.101047714 -1.30493784e-06 0)
(0.101061705 2.93271272e-06 0)
(0.101038758 6.68909083e-06 0)
(0.101052029 1.30415911e-05 0)
(0.101028525 1.36340837e-05 0)
(0.101041389 2.1698228e-05 0)
(0.101017244 1.97541993e-05 0)
(0.101029713 2.92755631e-05 0)
(0.101005077 2.51703421e-05 0)
(0.101017151 3.59531397e-05 0)
(0.100992165 2.99580315e-05 0)
(0.101003879 4.18265623e-05 0)
(0.100978635 3.41831439e-05 0)
(0.100990021 4.69762149e-05 0)
(0.100964599 3.79064964e-05 0)
(0.100975676 5.147727e-05 0)
(0.100950159 4.11825454e-05 0)
(0.100960935 5.53976931e-05 0)
(0.100935406 4.40584425e-05 0)
(0.100945886 5.87972481e-05 0)
(0.100920428 4.65742885e-05 0)
(0.100930612 6.17273583e-05 0)
(0.100905299 4.87641453e-05 0)
(0.10091519 6.42327836e-05 0)
(0.100890092 5.06565568e-05 0)
(0.100899687 6.63529888e-05 0)
(0.100874866 5.22749219e-05 0)
(0.100884162 6.81223201e-05 0)
(0.100859677 5.36385004e-05 0)
(0.100868671 6.95703991e-05 0)
(0.10084457 5.4763817e-05 0)
(0.100853259 7.07231417e-05 0)
(0.100829584 5.56659005e-05 0)
(0.100837967 7.16037596e-05 0)
(0.100814751 5.63591556e-05 0)
(0.100822829 7.22334844e-05 0)
(0.100800099 5.68578787e-05 0)
(0.100807875 7.26321109e-05 0)
(0.100785651 5.71764539e-05 0)
(0.100793128 7.28183798e-05 0)
(0.100771426 5.73293064e-05 0)
(0.100778612 7.2810174e-05 0)
(0.100757442 5.73307253e-05 0)
(0.100764343 7.26245766e-05 0)
(0.100743715 5.71946403e-05 0)
(0.100750337 7.22778532e-05 0)
(0.100730258 5.69343885e-05 0)
(0.10073661 7.17853924e-05 0)
(0.100717083 5.65624942e-05 0)
(0.100723171 7.11616207e-05 0)
(0.100704202 5.60904831e-05 0)
(0.100710033 7.04199118e-05 0)
(0.100691624 5.55287514e-05 0)
(0.100697205 6.95725094e-05 0)
(0.100679359 5.48865027e-05 0)
(0.100684696 6.86304838e-05 0)
(0.100667414 5.41717551e-05 0)
(0.100672511 6.76037276e-05 0)
(0.100655796 5.33914164e-05 0)
(0.100660657 6.6500998e-05 0)
(0.10064451 5.25514158e-05 0)
(0.10064914 6.53299997e-05 0)
(0.100633559 5.16568776e-05 0)
(0.100637963 6.40975048e-05 0)
(0.100622948 5.07123104e-05 0)
(0.100627129 6.28094933e-05 0)
(0.100612678 4.97217892e-05 0)
(0.10061664 6.14712971e-05 0)
(0.100602751 4.86891116e-05 0)
(0.100606498 6.00877345e-05 0)
(0.100593167 4.7617912e-05 0)
(0.100596702 5.86632215e-05 0)
(0.100583926 4.65117273e-05 0)
(0.100587254 5.72018502e-05 0)
(0.100575028 4.53740168e-05 0)
(0.100578152 5.57074338e-05 0)
(0.100566472 4.4208138e-05 0)
(0.100569397 5.41835156e-05 0)
(0.10055826 4.30172909e-05 0)
(0.100560987 5.26333453e-05 0)
(0.100550391 4.1804432e-05 0)
(0.100552924 5.10598282e-05 0)
(0.100542865 4.05721882e-05 0)
(0.100545206 4.94654349e-05 0)
(0.100535683 3.93226613e-05 0)
(0.100537834 4.7852124e-05 0)
(0.100528848 3.80575557e-05 0)
(0.100530807 4.62209558e-05 0)
(0.100522362 3.67763655e-05 0)
(0.100524135 4.45727467e-05 0)
(0.10051623 3.54827618e-05 0)
(0.10051779 4.29028367e-05 0)
(0.100510459 3.41500903e-05 0)
(0.100511879 4.12220202e-05 0)
(0.100505071 3.28730004e-05 0)
(0.10050605 3.94493441e-05 0)
(0.100500044 3.11418698e-05 0)
(0.100501622 3.78964664e-05 0)
(0.100494361 3.4980031e-05 0)
(0.100001711 1.19315836e-05 0)
(0.100000581 -1.90693091e-08 0)
(0.100002051 4.448239e-05 0)
(0.100002106 2.01684482e-05 0)
(0.099994395 9.56916752e-05 0)
(0.0999993749 6.43742458e-05 0)
(0.0999736996 0.000158453449 0)
(0.0999857611 0.000126190765 0)
(0.0999373215 0.00022469091 0)
(0.099956994 0.000196740488 0)
(0.09988512 0.000286849159 0)
(0.0999122005 0.000267039776 0)
(0.0998189033 0.000338666014 0)
(0.0998525922 0.000329357022 0)
(0.0997417264 0.000375582131 0)
(0.099780512 0.000377835909 0)
(0.0996573746 0.000394990014 0)
(0.0996992434 0.000408611688 0)
(0.0995699452 0.000396339994 0)
(0.0996127542 0.000419994101 0)
(0.099483453 0.000380806167 0)
(0.0995251655 0.000412435879 0)
(0.0994015615 0.000350552683 0)
(0.099440312 0.000387879088 0)
(0.099327489 0.000308188137 0)
(0.0993615896 0.000348868491 0)
(0.0992639573 0.000256934787 0)
(0.0992919618 0.000298279344 0)
(0.0992129814 0.000201340758 0)
(0.0992338761 0.000239958727 0)
(0.0991754385 0.000147741823 0)
(0.0991889352 0.000179625585 0)
(0.0991505814 0.000103748546 0)
(0.0991573866 0.00012498952 0)
(0.0991358191 7.6701662e-05 0)
(0.0991376789 8.4549934e-05 0)
(0.0991269559 7.16989258e-05 0)
(0.0991263692 6.54779389e-05 0)
(0.0991188143 9.01087846e-05 0)
(0.09911855 7.15804834e-05 0)
(0.0991060919 0.000129225498 0)
(0.0991087013 0.000102296146 0)
(0.0990843334 0.000182999737 0)
(0.0990917368 0.000152880378 0)
(0.0990506658 0.000243415558 0)
(0.0990639619 0.000215551788 0)
(0.0990041563 0.000302127227 0)
(0.0990236112 0.000281180499 0)
(0.0989458148 0.000351892306 0)
(0.0989708693 0.000341039504 0)
(0.0988782339 0.000387406392 0)
(0.0989075906 0.000388124308 0)
(0.098805016 0.000405531719 0)
(0.0988368782 0.000417760083 0)
(0.0987302024 0.000405157527 0)
(0.0987625553 0.000427632982 0)
(0.0986578265 0.000386902883 0)
(0.098688649 0.000417513731 0)
(0.0985916106 0.000352813339 0)
(0.0986190165 0.000388875377 0)
(0.0985347672 0.000306162421 0)
(0.098557118 0.00034457233 0)
(0.0984898292 0.000251385346 0)
(0.0985058448 0.000288684699 0)
(0.0984584448 0.000194021608 0)
(0.0984673343 0.000226505412 0)
(0.0984411132 0.000140498993 0)
(0.0984427439 0.000164461101 0)
(0.0984368519 9.76320719e-05 0)
(0.0984319631 0.000109786913 0)
(0.0984432437 7.17111918e-05 0)
(0.0984334062 6.97928701e-05 0)
(0.0984567035 6.73011258e-05 0)
(0.0984440651 5.06455297e-05 0)
(0.0984725732 8.60455412e-05 0)
(0.0984597171 5.59940095e-05 0)
(0.0984859508 0.000125942809 0)
(0.0984754528 8.59568687e-05 0)
(0.0984925926 0.000181540954 0)
(0.0984865827 0.000136618879 0)
(0.0984897067 0.000245053595 0)
(0.0984895093 0.000200642453 0)
(0.0984764095 0.00030809112 0)
(0.0984823335 0.000268863024 0)
(0.0984537343 0.000363528136 0)
(0.0984650923 0.00033236121 0)
(0.0984241682 0.000406959907 0)
(0.0984395539 0.000384467255 0)
(0.0983908697 0.000437317345 0)
(0.0984085989 0.000422050727 0)
(0.098356815 0.00045650314 0)
(0.0983753766 0.000445715795 0)
(0.0983241316 0.000468262364 0)
(0.0983425088 0.000458922873 0)
(0.0982937917 0.000476751947 0)
(0.098311576 0.000466438905 0)
(0.0982656929 0.000485322906 0)
(0.0982829979 0.000472723639 0)
(0.0982390178 0.000495869824 0)
(0.0982562677 0.000480801977 0)
(0.0982126843 0.000508823628 0)
(0.0982303804 0.000491895839 0)
(0.0981857144 0.000523605474 0)
(0.0982042627 0.000505743094 0)
(0.0981574251 0.000539233232 0)
(0.0981770622 0.000521284354 0)
(0.0981274437 0.000554806606 0)
(0.0981482472 0.000537344672 0)
(0.0980956135 0.000569736926 0)
(0.0981175567 0.000553057171 0)
(0.0980618753 0.000583739823 0)
(0.0980848846 0.000567968353 0)
(0.0980261832 0.000596699797 0)
(0.0980501729 0.000581919427 0)
(0.097988475 0.000608524139 0)
(0.0980133567 0.000594854835 0)
(0.0979486832 0.000619056231 0)
(0.0979743579 0.00060667591 0)
(0.0979067633 0.000628059329 0)
(0.0979331097 0.000617184434 0)
(0.0978627174 0.000635244468 0)
(0.0978895845 0.000626098869 0)
(0.0978166063 0.000640308802 0)
(0.0978438125 0.000633100743 0)
(0.0977685495 0.000642963318 0)
(0.0977958871 0.000637876439 0)
(0.097718722 0.000642945087 0)
(0.097745963 0.000640136576 0)
(0.0976673511 0.000640018577 0)
(0.0976942508 0.000639617379 0)
(0.0976147133 0.000633973485 0)
(0.0976410134 0.000636081498 0)
(0.0975611316 0.000624624228 0)
(0.0975865625 0.000629315443 0)
(0.0975069732 0.000611811786 0)
(0.0975312567 0.000619129966 0)
(0.097452647 0.000595406603 0)
(0.0974754987 0.000605362824 0)
(0.0973986004 0.000575311116 0)
(0.097419732 0.00058788206 0)
(0.0973453162 0.000551461218 0)
(0.0973644368 0.00056658852 0)
(0.0972933084 0.000523826474 0)
(0.0973101258 0.000541417258 0)
(0.097243119 0.000492409281 0)
(0.097257341 0.000512337946 0)
(0.0971953143 0.000457243119 0)
(0.0972066495 0.00047935454 0)
(0.0971504804 0.000418389759 0)
(0.0971586403 0.000442504299 0)
(0.0971092171 0.000375935708 0)
(0.0971139208 0.000401856212 0)
(0.0970721332 0.000329988113 0)
(0.0970731117 0.000357509055 0)
(0.0970398404 0.000280671059 0)
(0.0970368413 0.000309589893 0)
(0.0970129396 0.000228126275 0)
(0.0970057403 0.00025825646 0)
(0.0969919919 0.000172529428 0)
(0.0969804351 0.000203719319 0)
(0.0969775842 0.000114128185 0)
(0.0969615501 0.000146146948 0)
(0.0969704719 5.32550288e-05 0)
(0.0969497024 8.56431748e-05 0)
(0.0969717088 -9.6870716e-06 0)
(0.0969454581 2.23357614e-05 0)
(0.0969811289 -7.42264834e-05 0)
(0.0969493947 -4.25493895e-05 0)
(0.0969994319 -0.000140055049 0)
(0.0969621228 -0.00010918899 0)
(0.0970270568 -0.000206973442 0)
(0.0969841834 -0.000177283211 0)
(0.0970643472 -0.000274618243 0)
(0.0970159725 -0.000246530019 0)
(0.0971115511 -0.000342543007 0)
(0.0970577645 -0.000316463051 0)
(0.0971687877 -0.00041026853 0)
(0.0971097662 -0.000386573706 0)
(0.0972360777 -0.000477263695 0)
(0.0971720851 -0.000456324737 0)
(0.0973133409 -0.000542952313 0)
(0.097244715 -0.000525126886 0)
(0.0974003836 -0.000606730729 0)
(0.097327538 -0.000592352256 0)
(0.0974968937 -0.000667980195 0)
(0.0974203154 -0.000657349137 0)
(0.0976024402 -0.000726080285 0)
(0.0975226821 -0.000719453543 0)
(0.0977164756 -0.00078042469 0)
(0.0976341467 -0.000778004224 0)
(0.097838341 -0.000830437277 0)
(0.0977540946 -0.000832360101 0)
(0.0979672738 -0.000875587929 0)
(0.0978817936 -0.000881918446 0)
(0.0981024179 -0.000915407625 0)
(0.0980164025 -0.000926133096 0)
(0.0982428359 -0.000949501956 0)
(0.0981569838 -0.000964531463 0)
(0.0983875237 -0.000977562511 0)
(0.0983025182 -0.000996729188 0)
(0.0985354282 -0.000999375536 0)
(0.0984519228 -0.00102244159 0)
(0.0986854661 -0.0010148274 0)
(0.0986040719 -0.00104149138 0)
(0.0988365444 -0.00102390665 0)
(0.0987578186 -0.00105381241 0)
(0.0989875819 -0.00102670257 0)
(0.0989120185 -0.00105944954 0)
(0.0991375291 -0.00102340042 0)
(0.0990655519 -0.00105855472 0)
(0.0992853873 -0.00101427362 0)
(0.0992173453 -0.00105137972 0)
(0.0994302247 -0.000999673632 0)
(0.09936639 -0.00103826596 0)
(0.0995711903 -0.000980017895 0)
(0.0995117589 -0.00101963206 0)
(0.0997075239 -0.000955776608 0)
(0.0996526183 -0.000995959632 0)
(0.0998385637 -0.000927458915 0)
(0.0997882375 -0.000967778256 0)
(0.0999637498 -0.000895599071 0)
(0.0999179942 -0.000935650085 0)
(0.100082626 -0.000860743176 0)
(0.100041377 -0.000900154894 0)
(0.100194836 -0.000823436803 0)
(0.100157982 -0.000861876045 0)
(0.100300124 -0.000784213886 0)
(0.100267514 -0.000821387764 0)
(0.100398323 -0.000743587091 0)
(0.100369777 -0.000779244115 0)
(0.100489352 -0.000702039785 0)
(0.100464665 -0.000735969709 0)
(0.100573209 -0.000660019496 0)
(0.100552159 -0.000692052373 0)
(0.100649955 -0.000617931397 0)
(0.100632311 -0.000647937234 0)
(0.100719713 -0.000576132285 0)
(0.100705239 -0.000604020781 0)
(0.100782657 -0.000534927832 0)
(0.100771115 -0.000560646846 0)
(0.100839001 -0.00049457305 0)
(0.100830159 -0.000518106345 0)
(0.100888995 -0.000455274665 0)
(0.100882633 -0.000476639083 0)
(0.100932928 -0.000417195212 0)
(0.100928831 -0.000436437338 0)
(0.10097113 -0.000380455584 0)
(0.100969081 -0.000397651375 0)
(0.101003962 -0.000345134595 0)
(0.101003738 -0.000360396009 0)
(0.101031767 -0.000311279438 0)
(0.101033169 -0.000324758444 0)
(0.101054887 -0.000278927077 0)
(0.101057732 -0.000290794412 0)
(0.10107367 -0.00024811026 0)
(0.101077784 -0.000258536574 0)
(0.101088472 -0.000218850236 0)
(0.101093686 -0.000228011096 0)
(0.101099664 -0.000191157691 0)
(0.101105792 -0.000199238615 0)
(0.101107564 -0.000165029814 0)
(0.10111444 -0.000172142255 0)
(0.10111248 -0.00014044276 0)
(0.101119958 -0.000146686545 0)
(0.101114711 -0.000117356535 0)
(0.101122661 -0.000122834172 0)
(0.101114547 -9.57273321e-05 0)
(0.101122844 -0.000100539613 0)
(0.101112273 -7.55265068e-05 0)
(0.101120782 -7.97593744e-05 0)
(0.101108158 -5.67428939e-05 0)
(0.10111674 -6.04527612e-05 0)
(0.101102423 -3.93678499e-05 0)
(0.101110988 -4.25588922e-05 0)
(0.101095226 -2.33946407e-05 0)
(0.101103779 -2.60134183e-05 0)
(0.101086656 -8.75687601e-06 0)
(0.101095401 -1.07777391e-05 0)
(0.101076818 4.57947681e-06 0)
(0.101085957 3.08784158e-06 0)
(0.10106614 1.64820968e-05 0)
(0.101075437 1.52291339e-05 0)
(0.101054746 2.68839211e-05 0)
(0.101064027 2.61613619e-05 0)
(0.101042523 3.59519639e-05 0)
(0.101051847 3.57734341e-05 0)
(0.101029547 4.39124322e-05 0)
(0.101038892 4.42179829e-05 0)
(0.101015914 5.09108405e-05 0)
(0.101025219 5.16521382e-05 0)
(0.101001716 5.70404503e-05 0)
(0.101010944 5.81757452e-05 0)
(0.100987045 6.23830905e-05 0)
(0.100996178 6.38694547e-05 0)
(0.100971992 6.70164197e-05 0)
(0.100981014 6.88107967e-05 0)
(0.100956643 7.10114688e-05 0)
(0.100965537 7.30731631e-05 0)
(0.100941075 7.44309844e-05 0)
(0.100949824 7.67238564e-05 0)
(0.10092536 7.73298755e-05 0)
(0.10093395 7.98225986e-05 0)
(0.100909565 7.97570369e-05 0)
(0.100917984 8.24219606e-05 0)
(0.100893746 8.17564247e-05 0)
(0.100901987 8.4568662e-05 0)
(0.100877956 8.33672295e-05 0)
(0.100886015 8.63040678e-05 0)
(0.100862243 8.46242529e-05 0)
(0.100870116 8.76645666e-05 0)
(0.100846647 8.55586052e-05 0)
(0.100854332 8.86824667e-05 0)
(0.100831203 8.61983169e-05 0)
(0.100838701 8.93869453e-05 0)
(0.100815944 8.65688138e-05 0)
(0.100823253 8.9804716e-05 0)
(0.100800896 8.66933626e-05 0)
(0.100808015 8.99605113e-05 0)
(0.100786081 8.65934624e-05 0)
(0.10079301 8.98774452e-05 0)
(0.10077152 8.62891264e-05 0)
(0.100778258 8.95772271e-05 0)
(0.10075723 8.5799058e-05 0)
(0.100763775 8.90802457e-05 0)
(0.100743224 8.51407504e-05 0)
(0.100749575 8.84055898e-05 0)
(0.100729516 8.43305331e-05 0)
(0.100735673 8.75710429e-05 0)
(0.100716115 8.33835809e-05 0)
(0.100722077 8.6593064e-05 0)
(0.10070303 8.23139038e-05 0)
(0.100708797 8.54867647e-05 0)
(0.10069027 8.1134339e-05 0)
(0.100695843 8.42658994e-05 0)
(0.100677841 7.9856557e-05 0)
(0.10068322 8.29428815e-05 0)
(0.100665748 7.8491091e-05 0)
(0.100670934 8.15288295e-05 0)
(0.100653996 7.70473889e-05 0)
(0.100658991 8.00336415e-05 0)
(0.100642589 7.55338874e-05 0)
(0.100647393 7.8466092e-05 0)
(0.100631528 7.39581057e-05 0)
(0.100636144 7.68339502e-05 0)
(0.100620816 7.23267466e-05 0)
(0.100625246 7.51441067e-05 0)
(0.100610455 7.06457976e-05 0)
(0.1006147 7.34027008e-05 0)
(0.100600444 6.89206282e-05 0)
(0.100604507 7.16152381e-05 0)
(0.100590784 6.71560696e-05 0)
(0.100594666 6.97866887e-05 0)
(0.100581475 6.53564742e-05 0)
(0.100585177 6.79215587e-05 0)
(0.100572516 6.35257551e-05 0)
(0.10057604 6.60239343e-05 0)
(0.100563907 6.1667396e-05 0)
(0.100567253 6.40974965e-05 0)
(0.100555646 5.97844379e-05 0)
(0.100558815 6.21455073e-05 0)
(0.100547734 5.78794273e-05 0)
(0.100550726 6.01707712e-05 0)
(0.10054017 5.59543546e-05 0)
(0.100542985 5.8175558e-05 0)
(0.100532954 5.40104191e-05 0)
(0.100535592 5.61615589e-05 0)
(0.100526086 5.20482674e-05 0)
(0.100528544 5.41294925e-05 0)
(0.100519566 5.00654111e-05 0)
(0.10052185 5.20801903e-05 0)
(0.100513396 4.80662332e-05 0)
(0.100515479 5.00083981e-05 0)
(0.100507569 4.60112246e-05 0)
(0.100509537 4.79314714e-05 0)
(0.100502093 4.4048893e-05 0)
(0.100503661 4.57552958e-05 0)
(0.100496875 4.14415375e-05 0)
(0.10049919 4.39051505e-05 0)
(0.100491807 4.0458138e-05 0)
(0.100001101 9.04405027e-06 0)
(0.100000609 -1.2874343e-06 0)
(0.0999997363 4.23293756e-05 0)
(0.10000213 2.17405108e-05 0)
(0.0999904332 9.861148e-05 0)
(0.0999994255 7.50869126e-05 0)
(0.0999685594 0.000169702447 0)
(0.0999859822 0.000151378752 0)
(0.0999317034 0.000245678554 0)
(0.0999574321 0.000239180743 0)
(0.0998797036 0.000317318212 0)
(0.0999127102 0.000326918278 0)
(0.0998141746 0.0003772403 0)
(0.0998528903 0.000404814625 0)
(0.0997379386 0.000420234411 0)
(0.0997802508 0.00046562293 0)
(0.0996545661 0.0004433342 0)
(0.0996980524 0.000504616394 0)
(0.0995679754 0.000445860474 0)
(0.0996102941 0.000519704519 0)
(0.0994820508 0.000429055507 0)
(0.0995211994 0.000511379445 0)
(0.0994003696 0.000395265442 0)
(0.0994347586 0.000481936154 0)
(0.0993260946 0.000347324702 0)
(0.0993545387 0.000434397301 0)
(0.0992619176 0.000288763869 0)
(0.099283653 0.000372180113 0)
(0.0992098682 0.000224654968 0)
(0.0992246568 0.000299894458 0)
(0.0991709148 0.000162185269 0)
(0.0991792141 0.000224481039 0)
(0.0991444951 0.000110100374 0)
(0.0991475791 0.000155412197 0)
(0.0991282154 7.69408889e-05 0)
(0.0991281617 0.000103296182 0)
(0.0991179366 6.8807037e-05 0)
(0.0991174682 7.73141368e-05 0)
(0.0991083783 8.76197004e-05 0)
(0.0991105158 8.25869945e-05 0)
(0.0990942329 0.000130574253 0)
(0.099101669 0.000118584844 0)
(0.0990712413 0.000190900882 0)
(0.0990857009 0.000179355513 0)
(0.0990368271 0.000259479439 0)
(0.0990587439 0.000255180261 0)
(0.0989902746 0.000326696176 0)
(0.0990188467 0.000334786412 0)
(0.0989325918 0.000384052216 0)
(0.0989660704 0.000407462222 0)
(0.0988661806 0.000425200806 0)
(0.0989022432 0.000464597732 0)
(0.0987943786 0.000446329972 0)
(0.0988305125 0.00050044117 0)
(0.0987209771 0.000446047003 0)
(0.098754806 0.000512155996 0)
(0.0986498194 0.000425010311 0)
(0.0986793173 0.000499452864 0)
(0.0985845066 0.000385529477 0)
(0.0986081171 0.000464084013 0)
(0.0985281815 0.000331292383 0)
(0.0985448916 0.000409431559 0)
(0.0984833391 0.000267267605 0)
(0.0984927426 0.000340321442 0)
(0.0984516243 0.000199675551 0)
(0.0984539777 0.000263025431 0)
(0.0984335903 0.000135796354 0)
(0.0984298535 0.00018522753 0)
(0.0984284859 8.34031999e-05 0)
(0.0984202837 0.000115664719 0)
(0.0984341553 4.97141385e-05 0)
(0.0984236152 6.3264474e-05 0)
(0.0984470376 3.99856794e-05 0)
(0.0984366532 3.58114307e-05 0)
(0.0984625578 5.62518967e-05 0)
(0.0984550108 3.81222773e-05 0)
(0.0984760359 9.66448546e-05 0)
(0.0984737458 7.0436616e-05 0)
(0.0984834478 0.00015541002 0)
(0.0984880611 0.000128083913 0)
(0.0984820864 0.000223862907 0)
(0.0984940965 0.000202210131 0)
(0.0984709699 0.000292292703 0)
(0.0984897057 0.000281663899 0)
(0.0984508698 0.000352211288 0)
(0.098474777 0.000355506751 0)
(0.0984239476 0.000398205837 0)
(0.0984510297 0.000415468619 0)
(0.0983930733 0.00042881737 0)
(0.0984213777 0.000457602867 0)
(0.0983610413 0.000446220699 0)
(0.0983890625 0.000482601137 0)
(0.0983299264 0.000454917918 0)
(0.0983568299 0.000494752153 0)
(0.0983007574 0.000459997218 0)
(0.098326385 0.000500027458 0)
(0.09827355 0.000465605089 0)
(0.0982982454 0.000504053429 0)
(0.0982476099 0.000474101084 0)
(0.0982719578 0.000510672337 0)
(0.0982219413 0.000486017683 0)
(0.0982465222 0.000521453668 0)
(0.0981955967 0.000500613746 0)
(0.09822083 0.00053607923 0)
(0.0981678751 0.000516637336 0)
(0.0981939688 0.000553206302 0)
(0.0981383562 0.000532946268 0)
(0.0981653397 0.00057133608 0)
(0.0981068296 0.000548807382 0)
(0.0981346208 0.000589360573 0)
(0.0980731904 0.000563890441 0)
(0.0981016575 0.000606704362 0)
(0.0980373616 0.000578093122 0)
(0.0980663575 0.00062317683 0)
(0.0979992623 0.000591348817 0)
(0.0980286318 0.000638726733 0)
(0.0979588151 0.000603510067 0)
(0.097988386 0.000653251548 0)
(0.0979159699 0.000614324171 0)
(0.0979455428 0.000666521338 0)
(0.0978707269 0.000623467632 0)
(0.0979000691 0.000678196831 0)
(0.0978231488 0.000630595332 0)
(0.0978519952 0.000687887594 0)
(0.097773364 0.000635376144 0)
(0.0978014211 0.000695204484 0)
(0.0977215626 0.000637508078 0)
(0.0977485151 0.000699786622 0)
(0.0976679905 0.000636718973 0)
(0.0976935074 0.000701306492 0)
(0.0976129454 0.000632762637 0)
(0.0976366849 0.00069946676 0)
(0.0975567746 0.000625417129 0)
(0.0975783878 0.000693997008 0)
(0.0974998718 0.000614486297 0)
(0.0975190064 0.000684654316 0)
(0.0974426742 0.000599803005 0)
(0.097458978 0.000671226803 0)
(0.0973856575 0.000581232322 0)
(0.0973987829 0.000653537662 0)
(0.0973293321 0.000558673778 0)
(0.0973389396 0.000631448009 0)
(0.0972742388 0.00053206258 0)
(0.097280001 0.000604858093 0)
(0.0972209445 0.000501369961 0)
(0.0972225489 0.000573707167 0)
(0.0971700393 0.000466602943 0)
(0.0971671905 0.000537972552 0)
(0.0971221338 0.000427803586 0)
(0.0971145538 0.00049766831 0)
(0.0970778551 0.000385047876 0)
(0.0970652841 0.00045284376 0)
(0.0970378443 0.000338445114 0)
(0.0970200394 0.000403582132 0)
(0.0970027511 0.000288138796 0)
(0.0969794867 0.000350000218 0)
(0.0969732318 0.000234308465 0)
(0.0969442968 0.000292248436 0)
(0.0969499684 0.000177178263 0)
(0.0969151459 0.000230507472 0)
(0.0969336187 0.00011701637 0)