/*--------------------------------*- C++ -*----------------------------------*\
| =========                 |                                                 |
| \\      /  F ield         | OpenFOAM: The Open Source CFD Toolbox           |
|  \\    /   O peration     | Version:  v2012                                 |
|   \\  /    A nd           | Website:  www.openfoam.com                      |
|    \\/     M anipulation  |                                                 |
\*---------------------------------------------------------------------------*/
FoamFile
{
    version     2.0;
    format      ascii;
    class       volVectorField;
    location    "2.49";
    object      H;
}
// * * * * * * * * * * * * * * * * * * * * * * * * * * * * * * * * * * * * * //

dimensions      [0 1 -2 0 0 0 0];


internalField   nonuniform List<vector> 
28416
(
(269.937777 0.0228698304 0)
(269.916444 0.0873263157 0)
(269.867348 0.170884407 0)
(269.778869 0.266580142 0)
(269.650199 0.363858582 0)
(269.485193 0.451997814 0)
(269.289767 0.521949657 0)
(269.071699 0.56713013 0)
(268.840482 0.584167733 0)
(268.606138 0.573282306 0)
(268.377969 0.537456013 0)
(268.164075 0.480855792 0)
(267.971474 0.408049802 0)
(267.806069 0.324780816 0)
(267.67195 0.239366659 0)
(267.570092 0.162979731 0)
(267.497026 0.107947295 0)
(267.444638 0.0848083964 0)
(267.401268 0.0989789516 0)
(267.353046 0.149446133 0)
(267.286774 0.229927902 0)
(267.194084 0.330098154 0)
(267.072671 0.43694665 0)
(266.924378 0.537235122 0)
(266.753859 0.619823072 0)
(266.568258 0.676676407 0)
(266.376212 0.703046711 0)
(266.186484 0.697465396 0)
(266.007179 0.661583895 0)
(265.845502 0.599850267 0)
(265.707533 0.51917559 0)
(265.597834 0.428644524 0)
(265.519275 0.339151071 0)
(265.471847 0.262400993 0)
(265.451831 0.210088473 0)
(265.452431 0.19198561 0)
(265.46448 0.214000271 0)
(265.477864 0.276710577 0)
(265.483304 0.374426735 0)
(265.473738 0.495867298 0)
(265.445402 0.626521861 0)
(265.398309 0.751894684 0)
(265.335781 0.860656835 0)
(265.263197 0.946783852 0)
(265.186372 1.01006779 0)
(265.11009 1.05496398 0)
(265.037199 1.08832771 0)
(264.968437 1.11694352 0)
(264.902873 1.14570144 0)
(264.838683 1.17688128 0)
(264.773902 1.21048858 0)
(264.706931 1.2451984 0)
(264.63671 1.27935595 0)
(264.562641 1.31164023 0)
(264.484394 1.34127387 0)
(264.401733 1.36789565 0)
(264.314427 1.39130751 0)
(264.222243 1.41126989 0)
(264.124994 1.42741748 0)
(264.022586 1.43927786 0)
(263.915052 1.44633583 0)
(263.802567 1.44809253 0)
(263.685448 1.44409804 0)
(263.564144 1.43395982 0)
(263.439231 1.41733995 0)
(263.311412 1.39395176 0)
(263.181505 1.36355992 0)
(263.050442 1.32598385 0)
(262.919257 1.28110248 0)
(262.789076 1.22885933 0)
(262.661107 1.16926756 0)
(262.536632 1.10241453 0)
(262.416999 1.02846448 0)
(262.303625 0.947658151 0)
(262.197994 0.860306058 0)
(262.10165 0.766774668 0)
(262.016199 0.667466641 0)
(261.943282 0.562786335 0)
(261.884498 0.453120032 0)
(261.841293 0.338863154 0)
(261.814895 0.220468316 0)
(261.805874 0.0985671142 0)
(261.815568 -0.0251626541 0)
(261.848573 -0.149385873 0)
(261.905947 -0.27511125 0)
(261.98735 -0.402312035 0)
(262.092795 -0.530196123 0)
(262.222704 -0.657956178 0)
(262.377159 -0.784732621 0)
(262.555965 -0.909576537 0)
(262.758724 -1.03149768 0)
(262.984775 -1.14947483 0)
(263.233175 -1.26245413 0)
(263.502715 -1.36936391 0)
(263.791942 -1.46914246 0)
(264.099176 -1.56077361 0)
(264.422537 -1.64332587 0)
(264.759967 -1.71598918 0)
(265.109256 -1.77810367 0)
(265.468071 -1.8291782 0)
(265.833989 -1.86889929 0)
(266.204535 -1.89713244 0)
(266.577221 -1.91391822 0)
(266.949593 -1.9194648 0)
(267.319271 -1.91413751 0)
(267.683988 -1.89844532 0)
(268.04162 -1.87302436 0)
(268.39022 -1.83861866 0)
(268.728034 -1.79605872 0)
(269.053517 -1.7462389 0)
(269.365345 -1.69009454 0)
(269.662415 -1.62857998 0)
(269.943842 -1.562648 0)
(270.208955 -1.49323143 0)
(270.45728 -1.42122693 0)
(270.688528 -1.34748048 0)
(270.902562 -1.27277525 0)
(271.099356 -1.197811 0)
(271.279004 -1.12317657 0)
(271.441774 -1.04934959 0)
(271.58816 -0.976727054 0)
(271.718849 -0.905668529 0)
(271.834584 -0.836516091 0)
(271.936047 -0.769554538 0)
(272.023918 -0.704931348 0)
(272.099002 -0.642712095 0)
(272.162182 -0.582975131 0)
(272.214329 -0.525799753 0)
(272.256281 -0.471243679 0)
(272.288836 -0.41933246 0)
(272.312759 -0.370034946 0)
(272.328776 -0.323273663 0)
(272.33761 -0.278944453 0)
(272.339988 -0.236931192 0)
(272.336654 -0.197119443 0)
(272.328371 -0.159414127 0)
(272.31594 -0.123762247 0)
(272.30021 -0.090231235 0)
(272.281984 -0.0590877134 0)
(272.261972 -0.0309378983 0)
(272.240401 -0.00645979094 0)
(272.216439 0.0143909063 0)
(272.189084 0.0323522785 0)
(272.15847 0.0481095225 0)
(272.125273 0.0620565585 0)
(272.090064 0.0744203314 0)
(272.053239 0.0853633499 0)
(272.015078 0.0950351036 0)
(271.975827 0.10357959 0)
(271.935744 0.11112141 0)
(271.895073 0.117762428 0)
(271.854025 0.123586641 0)
(271.812791 0.128662019 0)
(271.771541 0.133041611 0)
(271.730419 0.13676759 0)
(271.689545 0.139876262 0)
(271.649019 0.14240176 0)
(271.608925 0.144378292 0)
(271.569332 0.1458413 0)
(271.530299 0.146827661 0)
(271.491877 0.147375193 0)
(271.45411 0.147521853 0)
(271.41704 0.147304872 0)
(271.380702 0.14675992 0)
(271.345131 0.145920365 0)
(271.310356 0.144816695 0)
(271.276407 0.143476148 0)
(271.243305 0.141922591 0)
(271.211074 0.140176615 0)
(271.179731 0.138255825 0)
(271.149288 0.136175281 0)
(271.119759 0.133948031 0)
(271.091151 0.131585669 0)
(271.063467 0.129098839 0)
(271.036713 0.126497647 0)
(271.010889 0.123791947 0)
(270.985995 0.120991475 0)
(270.96203 0.118105866 0)
(270.938994 0.11514456 0)
(270.916887 0.112116626 0)
(270.895707 0.109030549 0)
(270.875456 0.10589398 0)
(270.856137 0.102713575 0)
(270.837748 0.0994942545 0)
(270.820315 0.0962407299 0)
(270.803777 0.0929471403 0)
(270.788406 0.0896392837 0)
(270.773349 0.0861621443 0)
(270.761911 0.0831418565 0)
(270.74069 0.0774240176 0)
(269.941232 0.0373278424 0)
(269.929647 0.150901116 0)
(269.894347 0.303940171 0)
(269.816612 0.479886346 0)
(269.69232 0.657130478 0)
(269.525641 0.816261588 0)
(269.323424 0.942159499 0)
(269.094292 1.02439255 0)
(268.848957 1.05793508 0)
(268.599051 1.0434735 0)
(268.355541 0.985887151 0)
(268.128053 0.891681327 0)
(267.924963 0.767861803 0)
(267.753334 0.623459569 0)
(267.618045 0.472108418 0)
(267.52029 0.332796365 0)
(267.456366 0.227154939 0)
(267.417215 0.174195825 0)
(267.38975 0.184831275 0)
(267.359441 0.258406091 0)
(267.312112 0.383392361 0)
(267.236138 0.540755513 0)
(267.125186 0.707766901 0)
(266.978998 0.862233739 0)
(266.802305 0.986182555 0)
(266.603491 1.06751706 0)
(266.393198 1.099971 0)
(266.182801 1.08241097 0)
(265.98321 1.01798913 0)
(265.804217 0.913406088 0)
(265.654094 0.778536901 0)
(265.53915 0.626384974 0)
(265.46312 0.472983218 0)
(265.426347 0.336345935 0)
(265.424913 0.23508035 0)
(265.450709 0.185471486 0)
(265.49245 0.197872636 0)
(265.536869 0.273546811 0)
(265.570629 0.40330841 0)
(265.582937 0.569074177 0)
(265.567685 0.747804286 0)
(265.524357 0.916717562 0)
(265.457542 1.058357 0)
(265.375218 1.16396479 0)
(265.286351 1.2341671 0)
(265.198564 1.27695759 0)
(265.116572 1.30392987 0)
(265.041757 1.32624565 0)
(264.972779 1.35172329 0)
(264.906791 1.3837764 0)
(264.840693 1.42207982 0)
(264.772 1.46420639 0)
(264.699156 1.50731275 0)
(264.621399 1.54922554 0)
(264.538422 1.58875043 0)
(264.450066 1.62541656 0)
(264.35614 1.65902254 0)
(264.256408 1.68927872 0)
(264.150653 1.71566343 0)
(264.038759 1.73745712 0)
(263.92077 1.7538521 0)
(263.796903 1.76405235 0)
(263.667541 1.76732678 0)
(263.533223 1.76302192 0)
(263.394626 1.75055649 0)
(263.252561 1.72941625 0)
(263.107962 1.69915587 0)
(262.961884 1.65940608 0)
(262.815491 1.60988144 0)
(262.670044 1.55038581 0)
(262.526894 1.48081445 0)
(262.387465 1.40115327 0)
(262.253251 1.31147572 0)
(262.1258 1.21193783 0)
(262.006704 1.10277076 0)
(261.897585 0.98427084 0)
(261.800075 0.856789501 0)
(261.71579 0.72071988 0)
(261.646323 0.576495243 0)
(261.593201 0.424627796 0)
(261.557968 0.265838037 0)
(261.542814 0.101119557 0)
(261.55037 -0.0683972479 0)
(261.581648 -0.241294798 0)
(261.636529 -0.417217922 0)
(261.716494 -0.595490765 0)
(261.822276 -0.77498752 0)
(261.954295 -0.954516843 0)
(262.11278 -1.13279141 0)
(262.29768 -1.30838595 0)
(262.508659 -1.47978736 0)
(262.745084 -1.6454315 0)
(263.006012 -1.80373017 0)
(263.290188 -1.95310802 0)
(263.596064 -2.09204345 0)
(263.921812 -2.21910872 0)
(264.265347 -2.33300904 0)
(264.624356 -2.43261933 0)
(264.996329 -2.51701621 0)
(265.378606 -2.58550407 0)
(265.768411 -2.63763384 0)
(266.162915 -2.67321372 0)
(266.55928 -2.69231093 0)
(266.954718 -2.69524503 0)
(267.346535 -2.68257297 0)
(267.732189 -2.65506741 0)
(268.109315 -2.61368926 0)
(268.475769 -2.55955638 0)
(268.829644 -2.49390971 0)
(269.169293 -2.41807847 0)
(269.493327 -2.33344571 0)
(269.800628 -2.24141554 0)
(270.09033 -2.14338294 0)
(270.361818 -2.04070669 0)
(270.614706 -1.93468584 0)
(270.848818 -1.82653905 0)
(271.064168 -1.71738797 0)
(271.260934 -1.6082338 0)
(271.439444 -1.49992717 0)
(271.600167 -1.39316616 0)
(271.743715 -1.28852637 0)
(271.87082 -1.18650849 0)
(271.982297 -1.08756702 0)
(272.079035 -0.992073879 0)
(272.161957 -0.900265662 0)
(272.231936 -0.812282319 0)
(272.289833 -0.728234755 0)
(272.336537 -0.648204503 0)
(272.37294 -0.572233944 0)
(272.399943 -0.500328894 0)
(272.418423 -0.432476291 0)
(272.429191 -0.368622582 0)
(272.433013 -0.308666372 0)
(272.430628 -0.252475708 0)
(272.422758 -0.199917734 0)
(272.410094 -0.150914676 0)
(272.39325 -0.10547933 0)
(272.372702 -0.0636054343 0)
(272.348625 -0.0252104364 0)
(272.321385 0.00985202778 0)
(272.291866 0.0411672484 0)
(272.260662 0.068393923 0)
(272.227623 0.0919725566 0)
(272.192557 0.112575776 0)
(272.155611 0.130665766 0)
(272.117089 0.146531281 0)
(272.077299 0.1603842 0)
(272.036499 0.172415936 0)
(271.994908 0.182811853 0)
(271.952735 0.191737105 0)
(271.910177 0.199332324 0)
(271.867411 0.205721757 0)
(271.824596 0.21101709 0)
(271.781873 0.215316924 0)
(271.739368 0.218707973 0)
(271.697192 0.221267528 0)
(271.655441 0.223065172 0)
(271.614197 0.224164021 0)
(271.573534 0.224622031 0)
(271.533511 0.224493165 0)
(271.49418 0.223828153 0)
(271.455587 0.22267486 0)
(271.417768 0.22107842 0)
(271.380757 0.219081227 0)
(271.344581 0.216722841 0)
(271.309265 0.214039872 0)
(271.274829 0.211065887 0)
(271.241291 0.207831393 0)
(271.208666 0.204363905 0)
(271.176966 0.200688092 0)
(271.1462 0.196825991 0)
(271.116377 0.192797273 0)
(271.087501 0.188619536 0)
(271.059574 0.184308582 0)
(271.032599 0.179878688 0)
(271.006577 0.175342813 0)
(270.981505 0.170712764 0)
(270.957383 0.165999296 0)
(270.934209 0.161212147 0)
(270.911982 0.156360018 0)
(270.890699 0.151450485 0)
(270.87036 0.146489825 0)
(270.850965 0.141482885 0)
(270.832507 0.136432093 0)
(270.81501 0.131339597 0)
(270.7984 0.12619271 0)
(270.782945 0.121026629 0)
(270.767712 0.115614502 0)
(270.756103 0.110916124 0)
(270.733977 0.102282653 0)
(269.940485 0.0373031685 0)
(269.924454 0.159768131 0)
(269.884361 0.333248701 0)
(269.803965 0.536352817 0)
(269.67924 0.741784275 0)
(269.513649 0.926561257 0)
(269.313524 1.07340124 0)
(269.086985 1.17038045 0)
(268.844173 1.21162538 0)
(268.596228 1.19770484 0)
(268.35378 1.133906 0)
(268.126223 1.02730745 0)
(267.921764 0.885531706 0)
(267.747396 0.718566939 0)
(267.608201 0.541818996 0)
(267.505937 0.377103417 0)
(267.437545 0.249634842 0)
(267.394676 0.1817824 0)
(267.364263 0.186852887 0)
(267.330578 0.265320423 0)
(267.279073 0.404652652 0)
(267.199483 0.582801847 0)
(267.086835 0.773406287 0)
(266.941249 0.950731226 0)
(266.767143 1.09351351 0)
(266.572206 1.18711942 0)
(266.366218 1.22391102 0)
(266.159807 1.2024644 0)
(265.963397 1.12639775 0)
(265.786524 1.00334611 0)
(265.637343 0.844419081 0)
(265.522128 0.66414305 0)
(265.444651 0.48044673 0)
(265.405457 0.313943655 0)
(265.401262 0.185967747 0)
(265.424809 0.115287498 0)
(265.46516 0.1139226 0)
(265.509118 0.183926052 0)
(265.543821 0.316258522 0)
(265.559086 0.491425799 0)
(265.548904 0.683285064 0)
(265.51223 0.865129133 0)
(265.452774 1.01592566 0)
(265.377602 1.12470348 0)
(265.294985 1.19176584 0)
(265.212203 1.22653987 0)
(265.133991 1.24310319 0)
(265.062006 1.25520718 0)
(264.99527 1.27257694 0)
(264.931248 1.29948324 0)
(264.867007 1.33550184 0)
(264.800071 1.37754344 0)
(264.728774 1.42199035 0)
(264.652199 1.46609665 0)
(264.569895 1.50839952 0)
(264.481589 1.54839669 0)
(264.387025 1.58595571 0)
(264.285933 1.6208398 0)
(264.178083 1.65251003 0)
(264.063357 1.68016195 0)
(263.941805 1.70286502 0)
(263.813656 1.71969156 0)
(263.679325 1.7297855 0)
(263.539387 1.73237743 0)
(263.394573 1.72677524 0)
(263.245757 1.71235496 0)
(263.093945 1.68856082 0)
(262.940272 1.65491284 0)
(262.785981 1.61101613 0)
(262.632413 1.55656821 0)
(262.480995 1.49136347 0)
(262.333225 1.4152951 0)
(262.190662 1.32835521 0)
(262.054917 1.23063297 0)
(261.927645 1.12231174 0)
(261.810537 1.00366489 0)
(261.705314 0.87505249 0)
(261.61371 0.736925281 0)
(261.537469 0.589830315 0)
(261.47837 0.434418189 0)
(261.438147 0.271464747 0)
(261.417669 0.101734151 0)
(261.418837 -0.0741730859 0)
(261.444558 -0.255553815 0)
(261.49558 -0.441287766 0)
(261.572599 -0.630373326 0)
(261.676344 -0.8216522 0)
(261.807481 -1.01376388 0)
(261.966374 -1.2052152 0)
(262.153073 -1.39439181 0)
(262.367335 -1.57957827 0)
(262.608588 -1.75898813 0)
(262.875922 -1.93079375 0)
(263.168081 -2.09316391 0)
(263.483468 -2.24431031 0)
(263.82016 -2.38253901 0)
(264.175927 -2.50630351 0)
(264.548265 -2.61425549 0)
(264.934442 -2.7052885 0)
(265.33154 -2.77857161 0)
(265.736517 -2.83357178 0)
(266.14627 -2.87006448 0)
(266.557691 -2.88813342 0)
(266.967736 -2.88816019 0)
(267.373479 -2.87080486 0)
(267.772171 -2.83697875 0)
(268.161273 -2.78781058 0)
(268.538503 -2.72460794 0)
(268.901856 -2.64881565 0)
(269.249621 -2.56197329 0)
(269.580385 -2.46567338 0)
(269.893036 -2.36152205 0)
(270.18675 -2.25110328 0)
(270.460975 -2.13594746 0)
(270.715412 -2.01750486 0)
(270.949988 -1.897124 0)
(271.164831 -1.77603486 0)
(271.360244 -1.6553358 0)
(271.536682 -1.53598334 0)
(271.694745 -1.4187901 0)
(271.835168 -1.30443297 0)
(271.958785 -1.19346872 0)
(272.066499 -1.0863508 0)
(272.159247 -0.983436861 0)
(272.237985 -0.885019625 0)
(272.303664 -0.791312395 0)
(272.357239 -0.702430062 0)
(272.399662 -0.618413913 0)
(272.431857 -0.539252458 0)
(272.454691 -0.464896687 0)
(272.468994 -0.395289002 0)
(272.475598 -0.33034948 0)
(272.475312 -0.269967645 0)
(272.468903 -0.214011789 0)
(272.457049 -0.162334722 0)
(272.440343 -0.114747078 0)
(272.419506 -0.0710094593 0)
(272.395495 -0.0309307614 0)
(272.369385 0.00552655556 0)
(272.341422 0.0386094762 0)
(272.310954 0.0686737507 0)
(272.277998 0.0956637829 0)
(272.24288 0.119539127 0)
(272.20583 0.14051824 0)
(272.167073 0.158896971 0)
(272.126892 0.174942684 0)
(272.085569 0.188881211 0)
(272.043351 0.200909752 0)
(272.000456 0.211213644 0)
(271.957086 0.219965218 0)
(271.913438 0.227315948 0)
(271.86969 0.23339684 0)
(271.826004 0.238322377 0)
(271.782519 0.242193115 0)
(271.739354 0.245098362 0)
(271.69661 0.24711925 0)
(271.65437 0.248330984 0)
(271.612704 0.248804048 0)
(271.571671 0.248604818 0)
(271.53132 0.247795825 0)
(271.491697 0.24643576 0)
(271.452839 0.244579389 0)
(271.414781 0.242277468 0)
(271.377552 0.239576699 0)
(271.341179 0.236519702 0)
(271.305685 0.233145049 0)
(271.271092 0.229487363 0)
(271.237415 0.2255775 0)
(271.204669 0.221442811 0)
(271.172867 0.217107467 0)
(271.142014 0.21259283 0)
(271.112119 0.207917851 0)
(271.083184 0.203099464 0)
(271.05521 0.198152936 0)
(271.028198 0.193092161 0)
(271.002145 0.187929864 0)
(270.977048 0.182677727 0)
(270.952905 0.177346423 0)
(270.929713 0.171945596 0)
(270.907469 0.166483776 0)
(270.886168 0.160968251 0)
(270.865809 0.155404878 0)
(270.846392 0.14979798 0)
(270.827908 0.144149431 0)
(270.810378 0.138461371 0)
(270.793726 0.132720837 0)
(270.778217 0.126971599 0)
(270.762948 0.120970398 0)
(270.751303 0.115806021 0)
(270.729502 0.106397847 0)
(269.941222 0.0464089897 0)
(269.929192 0.200877223 0)
(269.894079 0.423052718 0)
(269.817629 0.685452871 0)
(269.694558 0.951781184 0)
(269.527763 1.19182316 0)
(269.32355 1.38324435 0)
(269.09039 1.51065609 0)
(268.839065 1.56634408 0)
(268.581631 1.55082708 0)
(268.329833 1.47073621 0)
(268.094228 1.33509305 0)
(267.884043 1.15364794 0)
(267.70697 0.939111362 0)
(267.568268 0.711057628 0)
(267.469307 0.497237936 0)
(267.406246 0.329862081 0)
(267.369781 0.237960513 0)
(267.346676 0.238955749 0)
(267.321852 0.333713649 0)
(267.280195 0.506705773 0)
(267.20916 0.730141486 0)
(267.101429 0.97033559 0)
(266.95587 1.19429982 0)
(266.776907 1.37483377 0)
(266.57314 1.49325396 0)
(266.355736 1.53982571 0)
(266.136889 1.51268457 0)
(265.928616 1.41623354 0)
(265.741942 1.25980337 0)
(265.586302 1.05702272 0)
(265.468962 0.825856612 0)
(265.394278 0.588703467 0)
(265.362816 0.371600856 0)
(265.370507 0.201829397 0)
(265.408519 0.103880768 0)
(265.464611 0.0944550192 0)
(265.525185 0.176862255 0)
(265.576379 0.33921697 0)
(265.605956 0.55580122 0)
(265.606363 0.793159714 0)
(265.576188 1.0174733 0)
(265.519668 1.20220997 0)
(265.444884 1.33360489 0)
(265.361264 1.41215519 0)
(265.277109 1.44989257 0)
(265.197852 1.46474287 0)
(265.125459 1.47424482 0)
(265.058929 1.49085786 0)
(264.995472 1.52012345 0)
(264.931809 1.56159422 0)
(264.865124 1.61138965 0)
(264.793481 1.66491021 0)
(264.715768 1.71863394 0)
(264.631406 1.77066317 0)
(264.540036 1.82033337 0)
(264.441336 1.86747007 0)
(264.334981 1.91178301 0)
(264.2207 1.95260522 0)
(264.098356 1.98893033 0)
(263.967997 2.01958517 0)
(263.82988 2.04339244 0)
(263.684463 2.05925908 0)
(263.532388 2.06619712 0)
(263.374467 2.06331333 0)
(263.211668 2.0497988 0)
(263.045102 2.02493011 0)
(262.876016 1.98807964 0)
(262.705776 1.93872729 0)
(262.535857 1.87646816 0)
(262.367827 1.8010149 0)
(262.203334 1.71219568 0)
(262.04409 1.60994962 0)
(261.891858 1.49432155 0)
(261.748437 1.36545684 0)
(261.615649 1.22359713 0)
(261.495325 1.06907734 0)
(261.389296 0.902323818 0)
(261.299375 0.723852902 0)
(261.227352 0.534267918 0)
(261.174935 0.334230815 0)
(261.144204 0.12454021 0)
(261.138145 -0.0933626895 0)
(261.158355 -0.318063541 0)
(261.20477 -0.548529547 0)
(261.278838 -0.783431175 0)
(261.381651 -1.02117731 0)
(261.513987 -1.26003133 0)
(261.676367 -1.49809723 0)
(261.869001 -1.73331279 0)
(262.091754 -1.96348259 0)
(262.344116 -2.18632192 0)
(262.625179 -2.39950348 0)
(262.933623 -2.60071127 0)
(263.267719 -2.78770013 0)
(263.625345 -2.95835649 0)
(264.004009 -3.11075848 0)
(264.40089 -3.24323332 0)
(264.812891 -3.35440889 0)
(265.236696 -3.44325643 0)
(265.668844 -3.5091219 0)
(266.105802 -3.55174353 0)
(266.544043 -3.57125449 0)
(266.980118 -3.56817095 0)
(267.410732 -3.54336648 0)
(267.832806 -3.49803509 0)
(268.243528 -3.43364527 0)
(268.640395 -3.35188806 0)
(269.021239 -3.25462185 0)
(269.384246 -3.14381657 0)
(269.727958 -3.02149958 0)
(270.051267 -2.88970545 0)
(270.3534 -2.75043082 0)
(270.633895 -2.60559542 0)
(270.892578 -2.45700984 0)
(271.129528 -2.30634991 0)
(271.345046 -2.1551373 0)
(271.539626 -2.00472562 0)
(271.713922 -1.85629157 0)
(271.868726 -1.71083602 0)
(272.004944 -1.56919614 0)
(272.123564 -1.43206167 0)
(272.225629 -1.29998826 0)
(272.312214 -1.17340682 0)
(272.384405 -1.05263309 0)
(272.443283 -0.93787499 0)
(272.489905 -0.829244826 0)
(272.525306 -0.726778265 0)
(272.550482 -0.63044789 0)
(272.566386 -0.540168892 0)
(272.573931 -0.455788473 0)
(272.573989 -0.377109827 0)
(272.567384 -0.303912297 0)
(272.5549 -0.235960916 0)
(272.537323 -0.173016363 0)
(272.515452 -0.114840111 0)
(272.489902 -0.061215636 0)
(272.460996 -0.0121480735 0)
(272.429167 0.0323874954 0)
(272.394803 0.0722442017 0)
(272.358317 0.10764875 0)
(272.319979 0.139009274 0)
(272.280008 0.166654403 0)
(272.238604 0.190902861 0)
(272.195967 0.212084924 0)
(272.152321 0.230504915 0)
(272.107893 0.246426367 0)
(272.062896 0.260080259 0)
(272.017519 0.271677818 0)
(271.971932 0.281414383 0)
(271.926286 0.28946773 0)
(271.880713 0.295998923 0)
(271.835338 0.301153984 0)
(271.790273 0.305063821 0)
(271.745622 0.307844454 0)
(271.701479 0.309598826 0)
(271.657929 0.310419125 0)
(271.615045 0.310388741 0)
(271.572889 0.309583928 0)
(271.531514 0.308075176 0)
(271.490962 0.305928134 0)
(271.451268 0.303204066 0)
(271.412462 0.299960068 0)
(271.374566 0.296249153 0)
(271.337599 0.292120317 0)
(271.301576 0.287618592 0)
(271.266509 0.282785144 0)
(271.232406 0.277657387 0)
(271.199277 0.272269163 0)
(271.167125 0.266650942 0)
(271.135954 0.260830047 0)
(271.105767 0.254830894 0)
(271.076563 0.248675227 0)
(271.048344 0.242382358 0)
(271.021107 0.235969398 0)
(270.99485 0.229451471 0)
(270.96957 0.222841913 0)
(270.945264 0.216152428 0)
(270.921926 0.209393199 0)
(270.899554 0.20257295 0)
(270.878141 0.19569895 0)
(270.857684 0.188776939 0)
(270.838178 0.181811195 0)
(270.819612 0.174803603 0)
(270.802005 0.167757214 0)
(270.785272 0.16065774 0)
(270.769683 0.153561373 0)
(270.754281 0.146174383 0)
(270.742528 0.139830627 0)
(270.720126 0.128308907 0)
(269.941025 0.0497592409 0)
(269.928396 0.224398689 0)
(269.892891 0.482348127 0)
(269.81603 0.78971893 0)
(269.692338 1.1023359 0)
(269.524736 1.38450544 0)
(269.319525 1.61044474 0)
(269.085083 1.76240131 0)
(268.832073 1.83124916 0)
(268.572438 1.81715609 0)
(268.317842 1.72723288 0)
(268.078783 1.57137017 0)
(267.864456 1.3604178 0)
(267.682622 1.10882059 0)
(267.53884 0.839200698 0)
(267.435071 0.584032043 0)
(267.368337 0.381395839 0)
(267.329945 0.26592853 0)
(267.305988 0.25908699 0)
(267.279994 0.362723042 0)
(267.236577 0.55877987 0)
(267.164067 0.814579854 0)
(267.055844 1.09066455 0)
(266.910793 1.34849694 0)
(266.732929 1.55629242 0)
(266.530321 1.69213166 0)
(266.31368 1.74448726 0)
(266.09494 1.71099414 0)
(265.886071 1.59653948 0)
(265.698207 1.41164254 0)
(265.540981 1.17171493 0)
(265.421875 0.897173464 0)
(265.345471 0.613695486 0)
(265.312716 0.351457804 0)
(265.320545 0.142416793 0)
(265.36189 0.015069975 0)
(265.424649 -0.0113483488 0)
(265.492543 0.0683181278 0)
(265.550637 0.240561956 0)
(265.586793 0.477284109 0)
(265.594305 0.740012487 0)
(265.571604 0.988797474 0)
(265.522441 1.19191398 0)
(265.454534 1.33258635 0)
(265.377175 1.41102821 0)
(265.298722 1.44140245 0)
(265.224767 1.44516057 0)
(265.157426 1.44347966 0)
(265.095762 1.45152393 0)
(265.036938 1.47612185 0)
(264.977546 1.51681365 0)
(264.914601 1.56891716 0)
(264.845994 1.62683114 0)
(264.770467 1.68624854 0)
(264.687317 1.74485025 0)
(264.596087 1.80184283 0)
(264.496374 1.85705126 0)
(264.38779 1.91016949 0)
(264.270019 1.96043161 0)
(264.142897 2.00665108 0)
(264.006472 2.04742992 0)
(263.861025 2.08135873 0)
(263.707061 2.1071266 0)
(263.545295 2.12354739 0)
(263.37663 2.12954674 0)
(263.202147 2.12414787 0)
(263.023083 2.10647107 0)
(262.840824 2.07574421 0)
(262.656877 2.03131543 0)
(262.472855 1.97266193 0)
(262.290456 1.89939344 0)
(262.111442 1.81125168 0)
(261.937627 1.70810723 0)
(261.770867 1.58995521 0)
(261.613051 1.45691004 0)
(261.466095 1.30920012 0)
(261.331938 1.14716353 0)
(261.212529 0.971247126 0)
(261.109823 0.782010852 0)
(261.025769 0.580135888 0)
(260.962307 0.366433944 0)
(260.921137 0.141877336 0)
(260.904936 -0.0926993745 0)
(260.916441 -0.336246818 0)
(260.955891 -0.587353447 0)
(261.024687 -0.844493927 0)
(261.124072 -1.10594328 0)
(261.255078 -1.36973148 0)
(261.41844 -1.63366689 0)
(261.614547 -1.89535752 0)
(261.843406 -2.15223813 0)
(262.104604 -2.4016104 0)
(262.397279 -2.64069509 0)
(262.720089 -2.86669657 0)
(263.071213 -3.07687858 0)
(263.448354 -3.26864635 0)
(263.848764 -3.43962987 0)
(264.269291 -3.58776308 0)
(264.706437 -3.71135336 0)
(265.156441 -3.80913695 0)
(265.615357 -3.88031765 0)
(266.079161 -3.92458699 0)
(266.543836 -3.94212524 0)
(267.005477 -3.93358409 0)
(267.460369 -3.90005231 0)
(267.905069 -3.84300713 0)
(268.336464 -3.7642543 0)
(268.751818 -3.66586094 0)
(269.148805 -3.55008458 0)
(269.525521 -3.41930234 0)
(269.880481 -3.27594316 0)
(270.212614 -3.12242581 0)
(270.521233 -2.96110439 0)
(270.806008 -2.79422233 0)
(271.066927 -2.62387566 0)
(271.304259 -2.4519853 0)
(271.518511 -2.28027786 0)
(271.71039 -2.11027461 0)
(271.880766 -1.94328782 0)
(272.030637 -1.78042454 0)
(272.161103 -1.62259732 0)
(272.273329 -1.47053866 0)
(272.368519 -1.32481644 0)
(272.447892 -1.1858496 0)
(272.512662 -1.05392487 0)
(272.564019 -0.929212255 0)
(272.603117 -0.811778996 0)
(272.631071 -0.70160481 0)
(272.648943 -0.59859669 0)
(272.657747 -0.502601803 0)
(272.658441 -0.413420516 0)
(272.651936 -0.330825277 0)
(272.639084 -0.254574763 0)
(272.620673 -0.184420868 0)
(272.597385 -0.120087516 0)
(272.569785 -0.0613055527 0)
(272.53833 -0.00770989806 0)
(272.504084 0.0410211141 0)
(272.467635 0.0850308394 0)
(272.429159 0.124586429 0)
(272.388859 0.159922213 0)
(272.346924 0.19129445 0)
(272.303578 0.218959432 0)
(272.25905 0.243183986 0)
(272.213549 0.264249061 0)
(272.167279 0.28242924 0)
(272.120438 0.29798067 0)
(272.073214 0.311138776 0)
(272.02578 0.322120211 0)
(271.978303 0.33112519 0)
(271.930938 0.338337768 0)
(271.883829 0.343926432 0)
(271.8371 0.348045983 0)
(271.790857 0.350839183 0)
(271.745186 0.352437446 0)
(271.700161 0.352960895 0)
(271.655843 0.352518529 0)
(271.612282 0.351208777 0)
(271.569524 0.349120407 0)
(271.527606 0.346333554 0)
(271.486562 0.342920688 0)
(271.44642 0.33894749 0)
(271.407205 0.33447362 0)
(271.368938 0.32955335 0)
(271.331635 0.324236047 0)
(271.295312 0.318566529 0)
(271.259981 0.312585358 0)
(271.225648 0.306329107 0)
(271.192321 0.299830645 0)
(271.160004 0.293119419 0)
(271.128698 0.286221758 0)
(271.098401 0.279161186 0)
(271.069113 0.271958715 0)
(271.040828 0.264633117 0)
(271.013541 0.257201166 0)
(270.987247 0.249677821 0)
(270.961939 0.242076352 0)
(270.93761 0.23440843 0)
(270.914254 0.226684161 0)
(270.891864 0.218912101 0)
(270.870433 0.211099247 0)
(270.849956 0.203250989 0)
(270.830429 0.195371231 0)
(270.811837 0.187461538 0)
(270.794199 0.179525132 0)
(270.777431 0.171547083 0)
(270.761796 0.163591337 0)
(270.746372 0.15533642 0)
(270.734584 0.148272424 0)
(270.712486 0.135504751 0)
(269.941128 0.0547775193 0)
(269.928808 0.252869676 0)
(269.893652 0.550848317 0)
(269.817014 0.908948948 0)
(269.692962 1.27472997 0)
(269.523895 1.60597843 0)
(269.315774 1.87223676 0)
(269.076938 2.0523392 0)
(268.818325 2.13512889 0)
(268.552396 2.12037741 0)
(268.291454 2.0161342 0)
(268.04667 1.83389657 0)
(267.82789 1.58647583 0)
(267.643424 1.29101026 0)
(267.499129 0.974165872 0)
(267.396808 0.67395943 0)
(267.332729 0.434781745 0)
(267.29734 0.296843279 0)
(267.276551 0.285124335 0)
(267.254001 0.402548404 0)
(267.21379 0.629219155 0)
(267.143231 0.927602804 0)
(267.034923 1.25147943 0)
(266.887506 1.55526248 0)
(266.705176 1.80112446 0)
(266.496466 1.96284213 0)
(266.27273 2.02650492 0)
(266.046662 1.9890614 0)
(265.831052 1.85602347 0)
(265.637828 1.63952549 0)
(265.477335 1.35744941 0)
(265.357641 1.03357301 0)
(265.283746 0.697880153 0)
(265.256653 0.385697012 0)
(265.272093 0.134437772 0)
(265.321116 -0.0216059489 0)
(265.391425 -0.0600122833 0)
(265.467011 0.0248657116 0)
(265.534929 0.219498454 0)
(265.582922 0.49073541 0)
(265.601584 0.792980922 0)
(265.588409 1.07963486 0)
(265.547242 1.31350488 0)
(265.486059 1.4746919 0)
(265.414473 1.56315737 0)
(265.341175 1.59527298 0)
(265.272038 1.59609827 0)
(265.209364 1.59053844 0)
(265.152287 1.59657272 0)
(265.097929 1.62244857 0)
(265.042735 1.66782923 0)
(264.983507 1.72734117 0)
(264.9179 1.79444322 0)
(264.844424 1.86404926 0)
(264.762181 1.93337915 0)
(264.670551 2.00144528 0)
(264.56901 2.06800057 0)
(264.457075 2.13265742 0)
(264.334365 2.19449358 0)
(264.20068 2.25209064 0)
(264.056059 2.30377575 0)
(263.900806 2.34785662 0)
(263.735477 2.38275268 0)
(263.560864 2.40702847 0)
(263.37797 2.41938043 0)
(263.187991 2.41862186 0)
(262.992293 2.40368387 0)
(262.792399 2.37362897 0)
(262.589967 2.32766657 0)
(262.386766 2.26516245 0)
(262.184666 2.1856403 0)
(261.985609 2.08877677 0)
(261.791596 1.97439277 0)
(261.604668 1.84244363 0)
(261.426888 1.69300976 0)
(261.260332 1.52628895 0)
(261.107082 1.34259167 0)
(260.969222 1.14233961 0)
(260.848836 0.926067635 0)
(260.748006 0.694428959 0)
(260.66879 0.44821163 0)
(260.613343 0.188349846 0)
(260.584726 -0.08389844 0)
(260.586076 -0.367137372 0)
(260.617151 -0.659808515 0)
(260.679712 -0.96010876 0)
(260.775329 -1.26597312 0)
(260.905306 -1.57506726 0)
(261.070649 -1.884785 0)
(261.271997 -2.19225999 0)
(261.509562 -2.49439734 0)
(261.783061 -2.78792651 0)
(262.09168 -3.06947028 0)
(262.434026 -3.33562683 0)
(262.808125 -3.58306286 0)
(263.211422 -3.80861333 0)
(263.640812 -4.009383 0)
(264.092695 -4.18284471 0)
(264.563052 -4.3269281 0)
(265.047535 -4.44009257 0)
(265.541581 -4.52137961 0)
(266.040531 -4.57044059 0)
(266.53975 -4.58753848 0)
(267.034744 -4.5735243 0)
(267.521266 -4.52979069 0)
(267.995415 -4.45820665 0)
(268.453701 -4.3610382 0)
(268.893106 -4.24086048 0)
(269.311111 -4.10046628 0)
(269.70571 -3.94277584 0)
(270.075401 -3.77075197 0)
(270.419168 -3.58732369 0)
(270.736446 -3.39532045 0)
(271.027075 -3.19741801 0)
(271.291256 -2.99609665 0)
(271.529498 -2.79361115 0)
(271.742566 -2.59197161 0)
(271.931434 -2.39293434 0)
(272.097235 -2.19800131 0)
(272.241225 -2.00842725 0)
(272.364742 -1.82523345 0)
(272.469172 -1.64922563 0)
(272.555921 -1.48101361 0)
(272.626387 -1.32103147 0)
(272.681945 -1.16955805 0)
(272.723927 -1.02673677 0)
(272.753612 -0.892594606 0)
(272.772217 -0.767060924 0)
(272.780892 -0.649985234 0)
(272.780713 -0.541152519 0)
(272.772677 -0.440295929 0)
(272.757704 -0.347107774 0)
(272.736642 -0.261250113 0)
(272.710316 -0.182375599 0)
(272.679535 -0.110164559 0)
(272.645201 -0.0443834524 0)
(272.608275 0.0151826057 0)
(272.56876 0.0691437108 0)
(272.526464 0.117889474 0)
(272.482088 0.161634879 0)
(272.436149 0.200602085 0)