/*--------------------------------*- C++ -*----------------------------------*\
| =========                 |                                                 |
| \\      /  F ield         | OpenFOAM: The Open Source CFD Toolbox           |
|  \\    /   O peration     | Version:  v2012                                 |
|   \\  /    A nd           | Website:  www.openfoam.com                      |
|    \\/     M anipulation  |                                                 |
\*---------------------------------------------------------------------------*/
FoamFile
{
    version     2.0;
    format      ascii;
    class       volVectorField;
    location    "2.49";
    object      HbyA;
}
// * * * * * * * * * * * * * * * * * * * * * * * * * * * * * * * * * * * * * //

dimensions      [0 1 -1 0 0 0 0];


internalField   nonuniform List<vector> 
28416
(
(0.099999531 8.47222028e-06 0)
(0.0999925013 3.2350666e-05 0)
(0.0999740628 6.33052076e-05 0)
(0.0999410656 9.87560798e-05 0)
(0.0998932638 0.00013479323 0)
(0.0998321277 0.000167444834 0)
(0.0997598749 0.00019335912 0)
(0.0996793963 0.00021009712 0)
(0.0995942003 0.000216409812 0)
(0.099507976 0.000212378475 0)
(0.0994241341 0.00019910762 0)
(0.0993456384 0.000178140662 0)
(0.0992750528 0.000151169694 0)
(0.0992145259 0.000120322048 0)
(0.0991655275 8.867915e-05 0)
(0.0991283696 6.03801226e-05 0)
(0.0991017205 3.99920807e-05 0)
(0.0990825472 3.14197061e-05 0)
(0.0990665334 3.66696152e-05 0)
(0.0990485748 5.53665899e-05 0)
(0.0990238358 8.51832004e-05 0)
(0.0989892812 0.000122293796 0)
(0.0989441209 0.000161878421 0)
(0.098889093 0.000199032754 0)
(0.0988259598 0.000229629705 0)
(0.0987573843 0.000250692984 0)
(0.0986865676 0.000260463448 0)
(0.0986167409 0.000258396908 0)
(0.0985508817 0.00024510495 0)
(0.0984916231 0.000222235193 0)
(0.0984411741 0.000192347782 0)
(0.0984011765 0.000158808243 0)
(0.0983726384 0.000125652594 0)
(0.0983555134 9.72177826e-05 0)
(0.098348381 7.78365745e-05 0)
(0.098348694 7.1129633e-05 0)
(0.0983530492 7.92858585e-05 0)
(0.0983577198 0.000102519363 0)
(0.0983593138 0.000138721931 0)
(0.098355279 0.000183713714 0)
(0.0983442936 0.000232118731 0)
(0.0983264243 0.000278566642 0)
(0.098302944 0.000318860504 0)
(0.0982758597 0.000350768588 0)
(0.0982473132 0.000374213974 0)
(0.0982190461 0.000390847275 0)
(0.0981920773 0.000403208148 0)
(0.0981666482 0.000413810048 0)
(0.0981423955 0.00042446457 0)
(0.0981186368 0.000436016315 0)
(0.0980946487 0.000448467358 0)
(0.0980698483 0.000461326864 0)
(0.098043853 0.000473981808 0)
(0.0980164481 0.000485942823 0)
(0.0979875156 0.000496921927 0)
(0.0979569702 0.000506785307 0)
(0.0979247274 0.000515459599 0)
(0.0978907028 0.00052285606 0)
(0.0978548285 0.000528839357 0)
(0.0978170719 0.000533234481 0)
(0.0977774476 0.00053585055 0)
(0.0977360224 0.000536502755 0)
(0.0976929142 0.00053502439 0)
(0.09764829 0.000531270006 0)
(0.0976023639 0.000525114384 0)
(0.0975553951 0.000516451276 0)
(0.0975076864 0.000505193454 0)
(0.0974595815 0.000491273958 0)
(0.0974114616 0.000474647869 0)
(0.0973637416 0.000455294199 0)
(0.097316866 0.000433217751 0)
(0.0972713065 0.000408450817 0)
(0.0972275594 0.00038105417 0)
(0.0971861452 0.000351116926 0)
(0.0971476086 0.000318754064 0)
(0.0971125174 0.000284101295 0)
(0.0970814614 0.000247307751 0)
(0.0970550429 0.000208523201 0)
(0.0970338496 0.000167890736 0)
(0.0970184125 0.00012555684 0)
(0.0970091825 8.16892069e-05 0)
(0.0970063672 3.65218607e-05 0)
(0.097010254 -9.32349242e-06 0)
(0.0970221354 -5.53515959e-05 0)
(0.097042988 -0.000101935897 0)
(0.0970726856 -0.000149066394 0)
(0.097111234 -0.000196449504 0)
(0.0971587906 -0.000243786009 0)
(0.0972153877 -0.000290757344 0)
(0.0972809546 -0.000337011859 0)
(0.0973553473 -0.000382182611 0)
(0.0974383245 -0.000425891199 0)
(0.0975295406 -0.000467747165 0)
(0.0976285527 -0.000507353469 0)
(0.0977348278 -0.000544316798 0)
(0.0978477495 -0.00057826074 0)
(0.097966627 -0.000608840285 0)
(0.0980907043 -0.000635755435 0)
(0.0982191692 -0.000658761854 0)
(0.0983511636 -0.000677677746 0)
(0.0984857959 -0.000692387136 0)
(0.098622155 -0.000702840357 0)
(0.0987593252 -0.000709052602 0)
(0.0988964028 -0.000711101156 0)
(0.0990325105 -0.0007091215 0)
(0.0991668125 -0.000703302323 0)
(0.0992985263 -0.0006938794 0)
(0.0994269331 -0.000681128451 0)
(0.0995513856 -0.00066535721 0)
(0.0996713139 -0.000646897045 0)
(0.0997862282 -0.000626094494 0)
(0.0998957204 -0.000603303099 0)
(0.0999994634 -0.000578875815 0)
(0.100097208 -0.000553158191 0)
(0.100188777 -0.000526482365 0)
(0.100274064 -0.000499161693 0)
(0.100353016 -0.000471486257 0)
(0.100425622 -0.000443715236 0)
(0.100491916 -0.00041606672 0)
(0.100551994 -0.000388717596 0)
(0.10060604 -0.000361814892 0)
(0.100654303 -0.000335491761 0)
(0.100697059 -0.000309874884 0)
(0.100734557 -0.000285069729 0)
(0.100767046 -0.000261130897 0)
(0.100794823 -0.000238082652 0)
(0.100818213 -0.000215953996 0)
(0.100837536 -0.000194774285 0)
(0.1008531 -0.000174564883 0)
(0.100865199 -0.000155335242 0)
(0.100874115 -0.000137073812 0)
(0.100880116 -0.000119751886 0)
(0.100883466 -0.000103330874 0)
(0.100884436 -8.77677556e-05 0)
(0.100883297 -7.30201351e-05 0)
(0.100880331 -5.90527895e-05 0)
(0.100875834 -4.58460858e-05 0)
(0.100870118 -3.34250029e-05 0)
(0.100863477 -2.1888309e-05 0)
(0.100856172 -1.14605722e-05 0)
(0.100848249 -2.39295345e-06 0)
(0.100839371 5.3309416e-06 0)
(0.100829228 1.1984519e-05 0)
(0.100817893 1.78216048e-05 0)
(0.100805615 2.29881241e-05 0)
(0.100792603 2.75681472e-05 0)
(0.100779003 3.16218741e-05 0)
(0.100764916 3.52046817e-05 0)
(0.100750433 3.8369912e-05 0)
(0.100735648 4.11637217e-05 0)
(0.10072065 4.36238446e-05 0)
(0.100705518 4.57813958e-05 0)
(0.10069032 4.76615535e-05 0)
(0.100675119 4.92839683e-05 0)
(0.100659968 5.06642624e-05 0)
(0.100644911 5.18158841e-05 0)
(0.100629984 5.27514766e-05 0)
(0.100615219 5.34837119e-05 0)
(0.10060064 5.40257182e-05 0)
(0.10058627 5.43911554e-05 0)
(0.100572126 5.45940327e-05 0)
(0.100558225 5.46484105e-05 0)
(0.100544581 5.45680798e-05 0)
(0.100531209 5.43662541e-05 0)
(0.10051812 5.40552943e-05 0)
(0.100505326 5.36464931e-05 0)
(0.100492836 5.3149941e-05 0)
(0.100480659 5.25744791e-05 0)
(0.100468804 5.19277349e-05 0)
(0.100457275 5.121623e-05 0)
(0.10044608 5.04455429e-05 0)
(0.10043522 4.96205073e-05 0)
(0.1004247 4.87454177e-05 0)
(0.100414522 4.78242172e-05 0)
(0.100404686 4.68606498e-05 0)
(0.100395192 4.58583651e-05 0)
(0.100386041 4.48209701e-05 0)
(0.100377233 4.37520342e-05 0)
(0.100368767 4.26550541e-05 0)
(0.100360642 4.15333894e-05 0)
(0.10035286 4.03901838e-05 0)
(0.100345419 3.92282713e-05 0)
(0.100338322 3.80501172e-05 0)
(0.100331567 3.68575451e-05 0)
(0.100325165 3.56522998e-05 0)
(0.100319091 3.44322105e-05 0)
(0.100313448 3.3206834e-05 0)
(0.10030792 3.19187449e-05 0)
(0.100303727 3.07998938e-05 0)
(0.100297028 2.86820531e-05 0)
(0.0999999957 1.3828136e-05 0)
(0.0999966269 5.59019833e-05 0)
(0.0999833579 0.000112595759 0)
(0.0999544155 0.000177775412 0)
(0.0999083251 0.000243435948 0)
(0.0998466644 0.000302386803 0)
(0.0997719845 0.000349026912 0)
(0.0996874782 0.000379491923 0)
(0.0995970982 0.000391919929 0)
(0.0995051259 0.000386564888 0)
(0.0994155892 0.000365233942 0)
(0.0993320198 0.000330336592 0)
(0.0992574877 0.000284467832 0)
(0.0991945762 0.000230973063 0)
(0.099145057 0.000174903064 0)
(0.0991093345 0.000123292429 0)
(0.0990860057 8.41553183e-05 0)
(0.099071699 6.45353977e-05 0)
(0.0990615748 6.84756133e-05 0)
(0.0990502843 9.5733282e-05 0)
(0.099032629 0.000142037535 0)
(0.0990043639 0.000200336511 0)
(0.0989631984 0.000262209929 0)
(0.0989090806 0.000319436162 0)
(0.0988437884 0.000365356737 0)
(0.0987704316 0.000395490397 0)
(0.0986929412 0.000407515559 0)
(0.0986155082 0.00040101204 0)
(0.0985421436 0.000377147231 0)
(0.098476439 0.00033840313 0)
(0.0984214219 0.000288437899 0)
(0.0983793903 0.000232068875 0)
(0.0983516894 0.000175236013 0)
(0.0983384123 0.000124613572 0)
(0.0983380816 8.70956322e-05 0)
(0.0983476802 6.87159225e-05 0)
(0.0983630329 7.33103808e-05 0)
(0.0983792516 0.00010134687 0)
(0.0983914415 0.000149422005 0)
(0.0983956614 0.000210835947 0)
(0.0983897054 0.000277052697 0)
(0.0983734274 0.000339632302 0)
(0.0983485516 0.000392107443 0)
(0.0983180342 0.000431233673 0)
(0.0982851764 0.000457243015 0)
(0.0982527701 0.000473096908 0)
(0.09822253 0.000483090476 0)
(0.0981949431 0.000491358862 0)
(0.0981695001 0.000500798609 0)
(0.098145145 0.00051267442 0)
(0.0981207374 0.000526865864 0)
(0.0980953667 0.000542473761 0)
(0.0980684651 0.000558444724 0)
(0.0980397562 0.00057397359 0)
(0.0980091306 0.000588617893 0)
(0.0979765295 0.00060220319 0)
(0.0979418838 0.000614654885 0)
(0.0979051065 0.000625865665 0)
(0.0978661186 0.000635642269 0)
(0.0978248791 0.000643718114 0)
(0.0977814053 0.000649793962 0)
(0.0977357784 0.000653574882 0)
(0.0976881415 0.000654789997 0)
(0.0976386934 0.000653197174 0)
(0.0975876849 0.00064858102 0)
(0.0975354151 0.000640750963 0)
(0.0974822293 0.000629541962 0)
(0.0974285164 0.000614817135 0)
(0.0973747052 0.000596470664 0)
(0.0973212609 0.000574429804 0)
(0.0972686804 0.000548655667 0)
(0.097217489 0.00051914295 0)
(0.097168236 0.000485918788 0)
(0.0971214914 0.000449040918 0)
(0.0970778411 0.000408594908 0)
(0.0970378819 0.000364690486 0)
(0.0970022137 0.000317457809 0)
(0.0969714311 0.000267042497 0)
(0.0969461197 0.000213605053 0)
(0.0969268404 0.000157335246 0)
(0.0969141613 9.85000403e-05 0)
(0.0969088869 3.74676085e-05 0)
(0.0969117466 -2.53430984e-05 0)
(0.0969229406 -8.94061244e-05 0)
(0.0969428198 -0.000154589582 0)
(0.0969719314 -0.000220642913 0)
(0.0970105471 -0.000287148842 0)
(0.0970588233 -0.000353665824 0)
(0.0971168465 -0.000419716769 0)
(0.0971846003 -0.000484773504 0)
(0.0972619637 -0.000548275342 0)
(0.0973487063 -0.000609642721 0)
(0.097444483 -0.000668287211 0)
(0.0975488349 -0.000723625188 0)
(0.0976611946 -0.000775092994 0)
(0.0977808913 -0.000822161785 0)
(0.0979071594 -0.000864352025 0)
(0.0980391493 -0.000901247087 0)
(0.0981759391 -0.000932505108 0)
(0.0983165496 -0.00095786862 0)
(0.0984599607 -0.000977171529 0)
(0.0986051305 -0.000990343029 0)
(0.0987510144 -0.000997408289 0)
(0.098896585 -0.000998485928 0)
(0.0990408508 -0.000993782505 0)
(0.0991828731 -0.000983584438 0)
(0.0993217809 -0.000968247867 0)
(0.0994567825 -0.000948187031 0)
(0.0995871742 -0.000923861731 0)
(0.0997123466 -0.000895764432 0)
(0.0998317871 -0.000864407506 0)
(0.0999450807 -0.000830311104 0)
(0.100051907 -0.000793991958 0)
(0.100152037 -0.000755953386 0)
(0.100245326 -0.000716676546 0)
(0.100331707 -0.000676612813 0)
(0.100411184 -0.000636177629 0)
(0.10048382 -0.000595741795 0)
(0.100549734 -0.000555620351 0)
(0.100609099 -0.000516071819 0)
(0.100662138 -0.000477309359 0)
(0.100709118 -0.000439518385 0)
(0.100750341 -0.000402867207 0)
(0.100786132 -0.000367493546 0)
(0.100816831 -0.000333485003 0)
(0.100842758 -0.000300893387 0)
(0.10086423 -0.000269759753 0)
(0.100881575 -0.000240114278 0)
(0.10089512 -0.000211972644 0)
(0.100905197 -0.00018533699 0)
(0.100912129 -0.000160202466 0)
(0.100916215 -0.000136549227 0)
(0.100917736 -0.00011433971 0)
(0.100916967 -9.35250297e-05 0)
(0.100914171 -7.4055973e-05 0)
(0.100909604 -5.59037292e-05 0)
(0.100903492 -3.90730414e-05 0)
(0.100896009 -2.35615921e-05 0)
(0.100887223 -9.33880579e-06 0)
(0.100877215 3.64953023e-06 0)
(0.100866309 1.52497703e-05 0)
(0.100854771 2.53354758e-05 0)
(0.100842565 3.40698287e-05 0)
(0.100829618 4.17019943e-05 0)
(0.100815985 4.84031828e-05 0)
(0.100801775 5.42803585e-05 0)
(0.100787102 5.94120086e-05 0)
(0.100772061 6.38690376e-05 0)
(0.100756733 6.77201099e-05 0)
(0.100741193 7.10264037e-05 0)
(0.100725514 7.38400122e-05 0)
(0.10070976 7.62069596e-05 0)
(0.100693991 7.81686178e-05 0)
(0.100678257 7.97615102e-05 0)
(0.100662605 8.10177583e-05 0)
(0.100647076 8.1965992e-05 0)
(0.100631705 8.26319863e-05 0)
(0.100616522 8.30391212e-05 0)
(0.100601554 8.32088649e-05 0)
(0.100586823 8.31612062e-05 0)
(0.100572348 8.29149367e-05 0)
(0.100558145 8.24877873e-05 0)
(0.100544227 8.18964768e-05 0)
(0.100530608 8.11567086e-05 0)
(0.100517297 8.02831373e-05 0)
(0.100504303 7.9289324e-05 0)
(0.100491634 7.81877031e-05 0)
(0.100479296 7.69895758e-05 0)
(0.100467294 7.57051343e-05 0)
(0.100455633 7.43435166e-05 0)
(0.100444316 7.2912886e-05 0)
(0.100433346 7.14205297e-05 0)
(0.100422725 6.98729663e-05 0)
(0.100412454 6.82760503e-05 0)
(0.100402534 6.66350694e-05 0)
(0.100392964 6.49548248e-05 0)
(0.100383745 6.32396905e-05 0)
(0.100374875 6.14936504e-05 0)
(0.100366355 5.97203121e-05 0)
(0.100358182 5.79228983e-05 0)
(0.100350358 5.61042163e-05 0)
(0.100342881 5.42665911e-05 0)
(0.100335751 5.24118185e-05 0)
(0.100328967 5.0540798e-05 0)
(0.100322537 4.86543253e-05 0)
(0.100316433 4.67477005e-05 0)
(0.100310754 4.48339629e-05 0)
(0.100305156 4.28290752e-05 0)
(0.100300897 4.1088591e-05 0)
(0.100293857 3.78907808e-05 0)
(0.0999997126 1.38189947e-05 0)
(0.0999946562 5.91867802e-05 0)
(0.0999795391 0.000123453065 0)
(0.0999495178 0.000198693171 0)
(0.0999031682 0.000274795342 0)
(0.0998418185 0.000343246292 0)
(0.0997678369 0.000397644048 0)
(0.0996842364 0.000433571626 0)
(0.0995947624 0.000448853105 0)
(0.0995035148 0.000443698863 0)
(0.0994143954 0.000420067046 0)
(0.0993308476 0.00038057941 0)
(0.0992558754 0.000328059294 0)
(0.0991920333 0.00026620657 0)
(0.0991411606 0.000200728393 0)
(0.0991038601 0.000139706822 0)
(0.0990789532 9.24834952e-05 0)
(0.0990633198 6.73460231e-05 0)
(0.099052121 6.9224565e-05 0)
(0.0990395634 9.82948495e-05 0)
(0.0990203163 0.000149913845 0)
(0.0989906456 0.000215913334 0)
(0.098948777 0.000286527062 0)
(0.098894808 0.000352221256 0)
(0.0988304104 0.000405118815 0)
(0.0987584447 0.000439798542 0)
(0.0986825276 0.000453430747 0)
(0.0986065748 0.000445487609 0)
(0.0985344176 0.0004173091 0)
(0.09846955 0.000371723286 0)
(0.0984149526 0.000312845562 0)
(0.0983729054 0.000246057389 0)
(0.0983447608 0.00017800102 0)
(0.0983306766 0.000116313705 0)
(0.0983294004 6.88998121e-05 0)
(0.0983382201 4.2713292e-05 0)
(0.0983530827 4.22075682e-05 0)
(0.0983691226 6.81432127e-05 0)
(0.0983816234 0.000117170969 0)
(0.0983868775 0.000182068144 0)
(0.0983827263 0.00025314903 0)
(0.098368841 0.000320519135 0)
(0.0983466312 0.000376386598 0)
(0.0983187221 0.000416687045 0)
(0.0982881583 0.000441532919 0)
(0.0982576018 0.000454416745 0)
(0.0982287675 0.0004605539 0)
(0.098202236 0.00046503893 0)
(0.098177628 0.000471474775 0)
(0.0981539998 0.000481443689 0)
(0.0981302726 0.00049478854 0)
(0.0981055405 0.000510364832 0)
(0.0980791979 0.000526832314 0)
(0.0980509128 0.0005431737 0)
(0.0980205218 0.000558847062 0)
(0.0979879261 0.000573666322 0)
(0.0979530319 0.000587582428 0)
(0.0979157397 0.000600507661 0)
(0.0978759659 0.000612242369 0)
(0.097833669 0.000622488518 0)
(0.0977888687 0.000630901361 0)
(0.0977416522 0.0006371372 0)
(0.0976921728 0.000640878857 0)
(0.0976406445 0.000641841246 0)
(0.0975873376 0.000639767922 0)
(0.097532575 0.000634427656 0)
(0.0974767289 0.000625614492 0)
(0.0974202169 0.000613150532 0)
(0.0973634981 0.000596889397 0)
(0.097307067 0.000576718942 0)
(0.0972514494 0.000552562898 0)
(0.0971971969 0.000524381602 0)
(0.0971448835 0.000492172035 0)
(0.0970951022 0.000455967152 0)
(0.0970484621 0.000415834794 0)
(0.0970055859 0.000371876173 0)
(0.0969671059 0.000324224626 0)
(0.0969336604 0.0002730471 0)
(0.0969058904 0.000218546246 0)
(0.0968844503 0.000160963094 0)
(0.0968699771 0.000100585106 0)
(0.09686279 3.76954386e-05 0)
(0.0968632735 -2.74832831e-05 0)
(0.0968723667 -9.46896852e-05 0)
(0.0968907686 -0.00016350835 0)
(0.0969187372 -0.000233567992 0)
(0.0969565427 -0.000304439275 0)
(0.0970044332 -0.000375617953 0)
(0.0970625452 -0.000446550652 0)
(0.0971309007 -0.000516639117 0)
(0.0972094124 -0.000585247685 0)
(0.0972978742 -0.000651714429 0)
(0.0973959538 -0.000715362205 0)
(0.097503192 -0.0007755126 0)
(0.0976190042 -0.000831503166 0)
(0.0977426853 -0.000882706464 0)
(0.097873417 -0.00092854974 0)
(0.0980102805 -0.000968533712 0)
(0.098152271 -0.00100224874 0)
(0.0982983163 -0.00102938728 0)
(0.0984472978 -0.00104975217 0)
(0.0985980725 -0.00106326054 0)
(0.098749497 -0.0010699437 0)
(0.0989004496 -0.0010699433 0)
(0.0990498526 -0.00106350412 0)
(0.0991966911 -0.00105096397 0)
(0.0993400296 -0.00103274117 0)
(0.0994790251 -0.00100932022 0)
(0.0996129366 -0.000981236459 0)
(0.0997411314 -0.000949060259 0)
(0.099863087 -0.000913381571 0)
(0.0999783906 -0.000874795354 0)
(0.100086736 -0.000833888336 0)
(0.100187917 -0.00079122737 0)
(0.10028182 -0.000747349615 0)
(0.100368416 -0.000702754529 0)
(0.100447751 -0.000657897657 0)
(0.100519933 -0.000613185782 0)
(0.100585127 -0.000568973144 0)
(0.100643554 -0.000525560692 0)
(0.100695482 -0.000483199091 0)
(0.100741217 -0.000442094528 0)
(0.10078109 -0.000402414919 0)
(0.100815447 -0.000364292699 0)
(0.100844637 -0.000327836261 0)
(0.100869011 -0.000293124586 0)
(0.10088892 -0.000260200209 0)
(0.100904714 -0.000229078402 0)
(0.100916733 -0.000199754894 0)
(0.100925297 -0.00017221152 0)
(0.100930711 -0.000146426937 0)
(0.100933282 -0.000122371535 0)
(0.100933307 -0.00010000439 0)
(0.10093107 -7.92767126e-05 0)
(0.10092682 -6.01339821e-05 0)
(0.100920776 -4.25060551e-05 0)
(0.100913203 -2.63042545e-05 0)
(0.100904454 -1.14577945e-05 0)
(0.100894883 2.04722413e-06 0)
(0.10088454 1.43022653e-05 0)
(0.100873261 2.54390986e-05 0)
(0.100861073 3.54371338e-05 0)
(0.100848097 4.42813912e-05 0)
(0.100834416 5.20527965e-05 0)
(0.100820112 5.88609424e-05 0)
(0.100805288 6.48048696e-05 0)
(0.100790049 6.99682331e-05 0)
(0.100774485 7.4424082e-05 0)
(0.100758675 7.82410704e-05 0)
(0.100742693 8.14830338e-05 0)
(0.100726612 8.42060822e-05 0)
(0.100710497 8.64587435e-05 0)
(0.100694407 8.82834243e-05 0)
(0.100678394 8.97173735e-05 0)
(0.1006625 9.07936722e-05 0)
(0.100646763 9.15423735e-05 0)
(0.100631213 9.19913349e-05 0)
(0.100615876 9.21666654e-05 0)
(0.100600773 9.20929524e-05 0)
(0.100585923 9.17933582e-05 0)
(0.100571342 9.12896243e-05 0)
(0.100557043 9.06020368e-05 0)
(0.10054304 8.97493976e-05 0)
(0.100529342 8.87490059e-05 0)
(0.100515961 8.761665e-05 0)
(0.100502904 8.63666176e-05 0)
(0.100490178 8.50117345e-05 0)
(0.100477791 8.35634306e-05 0)
(0.100465747 8.20318376e-05 0)
(0.10045405 8.04259094e-05 0)
(0.100442704 7.87535591e-05 0)
(0.10043171 7.70218071e-05 0)
(0.10042107 7.52369261e-05 0)
(0.100410784 7.34045718e-05 0)
(0.100400852 7.15298908e-05 0)
(0.100391273 6.96175978e-05 0)
(0.100382047 6.76720196e-05 0)
(0.100373171 6.56971104e-05 0)
(0.100364646 6.36964426e-05 0)
(0.10035647 6.1673176e-05 0)
(0.100348641 5.96300115e-05 0)
(0.100341159 5.75691176e-05 0)
(0.100334024 5.54920963e-05 0)
(0.100327232 5.33996426e-05 0)
(0.100320792 5.12925482e-05 0)
(0.100314674 4.91660121e-05 0)
(0.100308979 4.70362483e-05 0)
(0.10030337 4.48131424e-05 0)
(0.100299099 4.29000321e-05 0)
(0.100292181 3.94152542e-05 0)
(0.0999999696 1.71922521e-05 0)
(0.0999963371 7.44157619e-05 0)
(0.0999829746 0.000156720997 0)
(0.0999543082 0.000253926949 0)
(0.0999084669 0.000352587756 0)
(0.0998465823 0.000441510991 0)
(0.0997710219 0.000512423448 0)
(0.0996849334 0.000559624785 0)
(0.0995923004 0.000580257225 0)
(0.0994975605 0.000574512527 0)
(0.0994050243 0.000544846494 0)
(0.0993185598 0.000494600427 0)
(0.0992415453 0.00042738568 0)
(0.099176787 0.000347910432 0)
(0.0991261831 0.000263425963 0)
(0.0990901839 0.00018421328 0)
(0.0990673102 0.000122205631 0)
(0.0990540785 8.81586514e-05 0)
(0.0990455798 8.85274173e-05 0)
(0.0990362604 0.00012363281 0)
(0.0990205857 0.000187721737 0)
(0.0989939924 0.000270498289 0)
(0.0989538531 0.000359483084 0)
(0.098899818 0.000442455283 0)
(0.0988335702 0.000509338426 0)
(0.0987583136 0.000553211184 0)
(0.0986781787 0.000570467147 0)
(0.098597659 0.0005604152 0)
(0.0985211702 0.000524685864 0)
(0.0984527519 0.000466735162 0)
(0.0983958523 0.000391611503 0)
(0.0983531104 0.000305970106 0)
(0.0983260868 0.000218109104 0)
(0.0983149389 0.000137675338 0)
(0.0983181146 7.47765303e-05 0)
(0.0983323134 3.84872207e-05 0)
(0.0983529952 3.4995e-05 0)
(0.0983751464 6.55261767e-05 0)
(0.0983936844 0.000125676868 0)
(0.0984041527 0.00020591838 0)
(0.0984038362 0.000293855756 0)
(0.0983922824 0.000376959701 0)
(0.0983711058 0.000445400996 0)
(0.0983433106 0.000494080419 0)
(0.0983123683 0.000523182318 0)
(0.0982813116 0.000537164116 0)
(0.0982521054 0.000542666804 0)
(0.098225438 0.000546187996 0)
(0.0982009152 0.000552343614 0)
(0.0981774985 0.000563186672 0)
(0.0981539807 0.000578551473 0)
(0.0981293327 0.000597000421 0)
(0.0981028507 0.000616829528 0)
(0.0980741331 0.000636734016 0)
(0.0980429703 0.000656010861 0)
(0.0980092316 0.000674413889 0)
(0.0979727985 0.000691878479 0)
(0.0979335521 0.000708297104 0)
(0.097891394 0.000723422681 0)
(0.0978462753 0.000736882379 0)
(0.0977982163 0.000748241564 0)
(0.0977473137 0.000757064064 0)
(0.0976937382 0.000762944905 0)
(0.0976377283 0.000765518023 0)
(0.0975795845 0.000764452453 0)
(0.0975196645 0.000759448442 0)
(0.0974583794 0.000750237907 0)
(0.097396189 0.000736588237 0)
(0.0973335976 0.000718306636 0)
(0.0972711488 0.000695242988 0)
(0.0972094207 0.000667290716 0)
(0.0971490202 0.000634386031 0)
(0.097090578 0.000596506257 0)
(0.0970347433 0.000553667874 0)
(0.0969821782 0.000505924622 0)
(0.0969335531 0.000453365914 0)
(0.096889542 0.000396115739 0)
(0.0968508176 0.000334331975 0)
(0.0968180477 0.000268205865 0)
(0.0967918895 0.000197960898 0)
(0.0967729703 0.000123842316 0)
(0.096762055 4.61460239e-05 0)
(0.0967598854 -3.45938092e-05 0)
(0.096766894 -0.000117851948 0)
(0.0967835403 -0.00020324526 0)
(0.0968103609 -0.000290280894 0)
(0.0968477599 -0.000378369081 0)
(0.0968960277 -0.00046686616 0)
(0.0969553589 -0.000555069442 0)
(0.0970258348 -0.000642214694 0)
(0.0971074095 -0.00072748839 0)
(0.0971998994 -0.000810043976 0)
(0.0973029738 -0.00088901919 0)
(0.0974161511 -0.000963556046 0)
(0.0975387991 -0.00103282288 0)
(0.0976701399 -0.00109603685 0)
(0.0978092594 -0.00115248622 0)
(0.0979551222 -0.00120155161 0)
(0.0981065902 -0.00124272507 0)
(0.0982624452 -0.00127562589 0)
(0.0984214139 -0.0013000122 0)
(0.0985821961 -0.00131578746 0)
(0.0987434928 -0.0013230014 0)
(0.098904034 -0.00132184563 0)
(0.0990626054 -0.00131264409 0)
(0.0992180711 -0.00129583937 0)
(0.0993693933 -0.00127197569 0)
(0.0995156474 -0.00124167965 0)
(0.0996560324 -0.00120563976 0)
(0.0997898769 -0.0011645858 0)
(0.0999166404 -0.0011192688 0)
(0.100035911 -0.00107044237 0)
(0.100147401 -0.00101884607 0)
(0.100250937 -0.000965190936 0)
(0.100346451 -0.000910147554 0)
(0.100433969 -0.000854336581 0)
(0.100513599 -0.000798321579 0)
(0.10058552 -0.000742603836 0)
(0.10064997 -0.000687619134 0)
(0.100707241 -0.000633738117 0)
(0.100757662 -0.000581270811 0)
(0.100801597 -0.000530472631 0)
(0.100839428 -0.000481549344 0)
(0.100871551 -0.000434660512 0)
(0.100898364 -0.000389923045 0)
(0.100920265 -0.000347413932 0)
(0.100937642 -0.000307174746 0)
(0.100950877 -0.00026921868 0)
(0.100960336 -0.000233535565 0)
(0.10096637 -0.000200093978 0)
(0.100969316 -0.000168837314 0)
(0.100969494 -0.000139692671 0)
(0.100967209 -0.000112578314 0)
(0.10096275 -8.74072083e-05 0)
(0.100956405 -6.40907082e-05 0)
(0.10094847 -4.25404631e-05 0)
(0.100939171 -2.26762736e-05 0)
(0.100928597 -4.50004968e-06 0)
(0.100916838 1.19974071e-05 0)
(0.100904111 2.67616594e-05 0)
(0.100890611 3.98766903e-05 0)
(0.100876438 5.14936895e-05 0)
(0.100861671 6.17343953e-05 0)
(0.100846384 7.07168743e-05 0)
(0.100830649 7.85634727e-05 0)
(0.100814548 8.5386921e-05 0)
(0.100798164 9.12848392e-05 0)
(0.100781575 9.63427884e-05 0)
(0.10076485 0.000100639013 0)
(0.100748052 0.000104245871 0)
(0.100731235 0.000107229215 0)
(0.100714449 0.000109648706 0)
(0.100697738 0.000111558436 0)
(0.100681144 0.000113006893 0)
(0.100664704 0.000114037056 0)
(0.100648453 0.000114687057 0)
(0.100632423 0.000114991043 0)
(0.100616639 0.000114979904 0)
(0.100601125 0.000114681887 0)
(0.100585899 0.000114123102 0)
(0.100570978 0.000113327867 0)
(0.100556373 0.000112318876 0)
(0.100542097 0.000111117279 0)
(0.100528156 0.000109742713 0)
(0.100514558 0.000108213328 0)
(0.100501308 0.000106545805 0)
(0.100488411 0.000104755393 0)
(0.100475869 0.000102855951 0)
(0.100463686 0.000100860017 0)
(0.100451863 9.87788763e-05 0)
(0.100440401 9.66226511e-05 0)
(0.100429302 9.44003854e-05 0)
(0.100418566 9.2120135e-05 0)
(0.100408192 8.97890536e-05 0)
(0.100398179 8.74134791e-05 0)
(0.100388528 8.49990151e-05 0)
(0.100379236 8.25506016e-05 0)
(0.100370303 8.00725739e-05 0)
(0.100361727 7.75687052e-05 0)
(0.100353506 7.50422265e-05 0)
(0.100345638 7.24958309e-05 0)
(0.100338122 6.99316455e-05 0)
(0.100330956 6.73512542e-05 0)
(0.100324137 6.47553567e-05 0)
(0.10031767 6.21450821e-05 0)
(0.100311525 5.95151381e-05 0)
(0.100305801 5.68863412e-05 0)
(0.100300146 5.41498804e-05 0)
(0.100295838 5.1799878e-05 0)
(0.100288702 4.75322389e-05 0)
(0.0999998877 1.84333541e-05 0)
(0.0999959869 8.31293361e-05 0)
(0.0999823996 0.000178686897 0)
(0.0999534813 0.000292551767 0)
(0.099907307 0.000408359436 0)
(0.0998450305 0.000512887945 0)
(0.0997690252 0.000596586906 0)
(0.0996824112 0.000652880533 0)
(0.099589131 0.000678388226 0)
(0.0994935815 0.000673171711 0)
(0.0994000414 0.000639864342 0)
(0.0993123547 0.000582129141 0)
(0.0992338834 0.000503984528 0)
(0.0991674554 0.00041078093 0)
(0.0991150719 0.00031089855 0)
(0.09907739 0.000216367922 0)
(0.0990532371 0.000141297556 0)
(0.0990393427 9.85201522e-05 0)
(0.0990305436 9.59855994e-05 0)
(0.09902077 0.00013438011 0)
(0.099004392 0.000207013808 0)
(0.0989771792 0.000301780165 0)
(0.0989367737 0.000404060927 0)
(0.0988828448 0.000499579699 0)
(0.0988169361 0.000576561916 0)
(0.0987420631 0.000626887668 0)
(0.0986621927 0.000646286507 0)
(0.0985817236 0.000633881846 0)
(0.0985050526 0.000591483429 0)
(0.0984362575 0.000522987376 0)
(0.0983788537 0.000434102377 0)
(0.0983355548 0.000332391783 0)
(0.0983079967 0.000227368395 0)
(0.098296468 0.000130212608 0)
(0.0982997755 5.2764624e-05 0)
(0.0983152528 5.58335034e-06 0)
(0.0983383539 -4.2045e-06 0)
(0.0983632639 2.53114229e-05 0)
(0.0983843053 8.91262065e-05 0)
(0.0983971364 0.000176828784 0)
(0.098399367 0.000274165368 0)
(0.0983905005 0.000366335394 0)
(0.0983719817 0.000441585802 0)
(0.0983466876 0.00049370207 0)
(0.0983180394 0.000522763599 0)
(0.098289087 0.000534017391 0)
(0.0982618463 0.000535410579 0)
(0.0982370535 0.000534788676 0)
(0.0982143321 0.000537769642 0)
(0.0981926241 0.000546883308 0)
(0.0981706745 0.000561959384 0)
(0.0981473934 0.00058126328 0)
(0.098122016 0.000602719903 0)
(0.0980940877 0.000624733621 0)
(0.0980633546 0.000646445285 0)
(0.0980296498 0.000667560975 0)
(0.0979928256 0.000688015859 0)
(0.0979527395 0.000707696578 0)
(0.0979092766 0.000726319396 0)
(0.0978623792 0.000743444746 0)
(0.0978120676 0.000758554712 0)
(0.0977584477 0.000771127145 0)
(0.0977017085 0.000780676361 0)
(0.097642115 0.000786762891 0)
(0.0975800023 0.000788988665 0)
(0.0975157697 0.000786991736 0)
(0.0974498752 0.000780446111 0)
(0.0973828297 0.000769065633 0)
(0.0973151899 0.000752608685 0)
(0.0972475507 0.000730881449 0)
(0.0971805377 0.000703739201 0)
(0.0971148003 0.000671086098 0)
(0.0970510068 0.000632874048 0)
(0.0969898404 0.000589101087 0)
(0.0969319967 0.000539809459 0)
(0.0968781811 0.000485083644 0)
(0.0968291064 0.000425048773 0)
(0.09678549 0.000359870291 0)
(0.0967480506 0.00028975557 0)
(0.0967175052 0.000214956921 0)
(0.096694566 0.000135775054 0)
(0.0966798584 5.25702169e-05 0)
(0.0966740008 -3.43482172e-05 0)
(0.0966777439 -0.000124590017 0)
(0.096691763 -0.000217631571 0)
(0.096716577 -0.000312907422 0)
(0.0967526462 -0.000409778149 0)
(0.0968003551 -0.000507513555 0)
(0.0968599778 -0.000605301363 0)
(0.0969316619 -0.000702255116 0)
(0.0970154148 -0.000797424222 0)
(0.0971110896 -0.000889808874 0)
(0.0972183733 -0.000978379357 0)
(0.0973367777 -0.0010621 0)
(0.0974656366 -0.00113995722 0)
(0.0976041091 -0.00121098997 0)
(0.0977511878 -0.00127432056 0)
(0.0979057158 -0.001329184 0)
(0.098066409 -0.00137495371 0)
(0.0982318841 -0.00141116202 0)
(0.0984006909 -0.00143751454 0)
(0.0985713477 -0.00145389751 0)
(0.0987423764 -0.00146037822 0)
(0.0989123375 -0.00145719856 0)
(0.099079862 -0.00144476225 0)
(0.0992436796 -0.00142361684 0)
(0.0994026411 -0.00139443151 0)
(0.0995557359 -0.00135797215 0)
(0.0997021033 -0.00131507513 0)
(0.0998410377 -0.00126662103 0)
(0.0999719889 -0.00121350959 0)
(0.100094557 -0.00115663671 0)
(0.100208486 -0.0010968743 0)
(0.100313649 -0.00103505325 0)
(0.100410038 -0.000971949835 0)
(0.100497748 -0.000908275462 0)
(0.100576963 -0.000844669562 0)
(0.100647939 -0.000781695505 0)
(0.100710994 -0.000719839257 0)
(0.100766495 -0.000659510787 0)
(0.100814842 -0.000601048024 0)
(0.100856464 -0.000544722212 0)
(0.100891803 -0.000490743644 0)
(0.100921307 -0.000439267455 0)
(0.100945422 -0.000390399806 0)
(0.100964585 -0.000344203646 0)
(0.100979221 -0.000300703862 0)
(0.10098974 -0.000259892928 0)
(0.100996534 -0.000221736384 0)
(0.100999975 -0.000186177617 0)
(0.101000418 -0.000153142682 0)
(0.100998197 -0.000122547293 0)
(0.100993627 -9.43020654e-05 0)
(0.100986999 -6.83151053e-05 0)
(0.100978563 -4.44841571e-05 0)
(0.10096853 -2.27095293e-05 0)
(0.100957059 -2.85599691e-06 0)
(0.100944421 1.51955616e-05 0)
(0.100930912 3.14982004e-05 0)
(0.100916667 4.61508862e-05 0)
(0.100901759 5.92404281e-05 0)
(0.100886258 7.08617559e-05 0)
(0.100870246 8.1109811e-05 0)
(0.100853806 9.00834354e-05 0)
(0.100837014 9.78867011e-05 0)
(0.100819946 0.000104621322 0)
(0.100802672 0.000110382182 0)
(0.100785263 0.000115256489 0)
(0.100767781 0.000119324495 0)
(0.100750287 0.000122660365 0)
(0.100732838 0.000125332277 0)
(0.100715487 0.000127402642 0)
(0.100698278 0.000128928801 0)
(0.100681251 0.000129963636 0)
(0.100664438 0.000130555826 0)
(0.100647864 0.000130749868 0)
(0.100631552 0.000130586136 0)
(0.100615521 0.000130101091 0)
(0.100599787 0.000129327614 0)
(0.100584364 0.00012829539 0)
(0.100569263 0.000127031263 0)
(0.100554496 0.000125559564 0)