/*--------------------------------*- C++ -*----------------------------------*\
| =========                 |                                                 |
| \\      /  F ield         | OpenFOAM: The Open Source CFD Toolbox           |
|  \\    /   O peration     | Version:  v2012                                 |
|   \\  /    A nd           | Website:  www.openfoam.com                      |
|    \\/     M anipulation  |                                                 |
\*---------------------------------------------------------------------------*/
FoamFile
{
    version     2.0;
    format      ascii;
    class       volScalarField;
    location    "2.49";
    object      p;
}
// * * * * * * * * * * * * * * * * * * * * * * * * * * * * * * * * * * * * * //

dimensions      [0 2 -2 0 0 0 0];


internalField   nonuniform List<scalar> 
28416
(
-0.000312427132
-0.000312293911
-0.000312031075
-0.00031171831
-0.000311489601
-0.000311442977
-0.000311607249
-0.00031198653
-0.000312595455
-0.000313450607
-0.000314554493
-0.00031589529
-0.00031745318
-0.000319202111
-0.000321107503
-0.000323125254
-0.000325208183
-0.000327322977
-0.000329461675
-0.00033162065
-0.000333796412
-0.000336031681
-0.000338396765
-0.000340922244
-0.000343592906
-0.000346389997
-0.000349304946
-0.000352325341
-0.000355430155
-0.000358595514
-0.000361796835
-0.000365007412
-0.000368190247
-0.000371288617
-0.000374309638
-0.000377246846
-0.000380090083
-0.000382808356
-0.000385374385
-0.000387766274
-0.000389964609
-0.000391952278
-0.000393713379
-0.000395231342
-0.000396487832
-0.000397462877
-0.000398135962
-0.000398487194
-0.000398498206
-0.000398152706
-0.000397436739
-0.000396338747
-0.000394849541
-0.000392962235
-0.000390672174
-0.000387976871
-0.00038487596
-0.000381371153
-0.000377466151
-0.000373166316
-0.000368478391
-0.000363410253
-0.000357970652
-0.000352168975
-0.00034601501
-0.000339518757
-0.000332690274
-0.000325539585
-0.000318076661
-0.000310311464
-0.000302254082
-0.000293914927
-0.000285305011
-0.000276436281
-0.000267321982
-0.000257977019
-0.000248418101
-0.000238663676
-0.000228733284
-0.000218647071
-0.000208425769
-0.000198097461
-0.000187736308
-0.000177254213
-0.000166797841
-0.000156376274
-0.000146005584
-0.000135731911
-0.000125597853
-0.000115641014
-0.000105900314
-9.64146459e-05
-8.72213386e-05
-7.83561003e-05
-6.98526327e-05
-6.17419531e-05
-5.40518318e-05
-4.6806299e-05
-4.00251909e-05
-3.37237778e-05
-2.79125011e-05
-2.25968335e-05
-1.77772587e-05
-1.34493749e-05
-9.60411544e-06
-6.22807954e-06
-3.30395147e-06
-8.10993897e-07
1.27440656e-06
2.97816346e-06
4.32790417e-06
5.3523901e-06
6.08095975e-06
6.54300296e-06
6.76744552e-06
6.78222771e-06
6.6136991e-06
6.2856051e-06
5.81820026e-06
5.2293201e-06
4.53955901e-06
3.77872335e-06
2.97424049e-06
2.14819101e-06
1.32169547e-06
5.13452876e-07
-2.66514155e-07
-1.01162294e-06
-1.71687744e-06
-2.37836232e-06
-2.99230615e-06
-3.55506681e-06
-4.06535747e-06
-4.52569568e-06
-4.94246523e-06
-5.3252044e-06
-5.68651393e-06
-6.04148633e-06
-6.40381429e-06
-6.77987555e-06
-7.15881873e-06
-7.5038078e-06
-7.76972711e-06
-7.95356068e-06
-8.08142913e-06
-8.17117492e-06
-8.22912032e-06
-8.25718952e-06
-8.25746586e-06
-8.23322375e-06
-8.18770528e-06
-8.12327245e-06
-8.04166943e-06
-7.94432268e-06
-7.83233528e-06
-7.70653914e-06
-7.56765228e-06
-7.41637629e-06
-7.25342271e-06
-7.07953067e-06
-6.89548129e-06
-6.70209154e-06
-6.50019269e-06
-6.2906084e-06
-6.07413719e-06
-5.8515386e-06
-5.62352294e-06
-5.39074637e-06
-5.15381087e-06
-4.91326757e-06
-4.66962179e-06
-4.42333965e-06
-4.17485543e-06
-3.92457904e-06
-3.67290335e-06
-3.4202111e-06
-3.16688091e-06
-2.91329314e-06
-2.65983539e-06
-2.40690901e-06
-2.15493446e-06
-1.90436727e-06
-1.65569078e-06
-1.40951362e-06
-1.16634228e-06
-9.27564568e-07
-6.92394788e-07
-4.69575679e-07
-2.40557797e-07
-1.08554295e-07
-0.000315337741
-0.000315468098
-0.000315634183
-0.000315746729
-0.000315866315
-0.000316106604
-0.000316504984
-0.00031705033
-0.00031774647
-0.000318611498
-0.000319653863
-0.000320867144
-0.000322237179
-0.000323747252
-0.000325379928
-0.000327119836
-0.000328957054
-0.000330884604
-0.000332895672
-0.000334989986
-0.000337164455
-0.000339403831
-0.000341708672
-0.000344097636
-0.000346580589
-0.000349154398
-0.000351813944
-0.000354551918
-0.000357354432
-0.000360202586
-0.000363075381
-0.000365950039
-0.000368800681
-0.000371599611
-0.000374334596
-0.000376982873
-0.000379526986
-0.000381960406
-0.000384266245
-0.000386419568
-0.00038839669
-0.000390176419
-0.000391738973
-0.000393065607
-0.000394138209
-0.000394938995
-0.000395451164
-0.000395659054
-0.000395548166
-0.000395105194
-0.000394318113
-0.000393176348
-0.000391670967
-0.000389794812
-0.000387542569
-0.000384910761
-0.000381897712
-0.000378503549
-0.000374730267
-0.000370580905
-0.0003660594
-0.000361170498
-0.000355919611
-0.000350312656
-0.000344355925
-0.000338055985
-0.00033141961
-0.000324453777
-0.000317165697
-0.000309562898
-0.000301653358
-0.000293445675
-0.000284949258
-0.000276174534
-0.000267133138
-0.000257838082
-0.000248303979
-0.000238547341
-0.000228587061
-0.000218444824
-0.000208145048
-0.000197718929
-0.000187172661
-0.000176594012
-0.000165959172
-0.000155325157
-0.000144730929
-0.000134212368
-0.000123812599
-0.000113575511
-0.000103545043
-9.37654006e-05
-8.42800566e-05
-7.51310456e-05
-6.63583292e-05
-5.79990166e-05
-5.00866092e-05
-4.26503083e-05
-3.57143937e-05
-2.92977056e-05
-2.34132635e-05
-1.80680474e-05
-1.32629461e-05
-8.99287444e-06
-5.24705417e-06
-2.00944472e-06
7.40704818e-07
3.02820747e-06
4.88122466e-06
6.33051943e-06
7.40870402e-06
8.14950612e-06
8.58707354e-06
8.75532754e-06
8.68736453e-06
8.41490866e-06
7.96783115e-06
7.37374305e-06
6.65784157e-06
5.84348186e-06
4.95381105e-06
4.01319742e-06
3.0446929e-06
2.06808757e-06
1.09898214e-06
1.49673647e-07
-7.66974655e-07
-1.64150287e-06
-2.46760677e-06
-3.24224596e-06
-3.96701987e-06
-4.64161393e-06
-5.26530101e-06
-5.83870358e-06
-6.36402893e-06
-6.84495326e-06
-7.28598353e-06
-7.68650843e-06
-8.04106946e-06
-8.34767149e-06
-8.61615964e-06
-8.86541716e-06
-9.08654477e-06
-9.25814009e-06
-9.37880974e-06
-9.4568605e-06
-9.49903548e-06
-9.50903694e-06
-9.48921573e-06
-9.44209897e-06
-9.37048727e-06
-9.27688544e-06
-9.16341541e-06
-9.0319978e-06
-8.88436566e-06
-8.72202568e-06
-8.54629685e-06
-8.35835883e-06
-8.15927118e-06
-7.94999356e-06
-7.73141565e-06
-7.50437944e-06
-7.26968808e-06
-7.0281084e-06
-6.78037204e-06
-6.52717523e-06
-6.26917682e-06
-6.0069961e-06
-5.74121182e-06
-5.4723628e-06
-5.2009496e-06
-4.92743741e-06
-4.65225975e-06
-4.37582251e-06
-4.09850855e-06
-3.8206826e-06
-3.542696e-06
-3.26489192e-06
-2.98761041e-06
-2.71119455e-06
-2.43599443e-06
-2.16237998e-06
-1.89072465e-06
-1.62148813e-06
-1.35494133e-06
-1.09210797e-06
-8.31388762e-07
-5.80392643e-07
-3.1641214e-07
-1.42034013e-07
-0.000316511574
-0.00031650674
-0.000316497463
-0.000316479794
-0.000316510009
-0.000316677404
-0.000317017086
-0.000317520589
-0.000318188023
-0.000319032226
-0.000320059134
-0.000321263061
-0.0003226332
-0.000324157097
-0.000325818879
-0.000327596892
-0.000329465729
-0.000331403717
-0.000333397923
-0.00033544256
-0.000337543833
-0.000339724985
-0.000342005693
-0.000344389739
-0.000346869005
-0.000349431468
-0.000352067273
-0.000354767854
-0.000357521847
-0.000360314059
-0.000363126263
-0.000365937232
-0.000368722681
-0.000371458274
-0.000374125086
-0.000376707986
-0.000379196096
-0.000381568536
-0.000383799753
-0.000385867792
-0.000387755635
-0.000389447379
-0.00039092716
-0.000392179106
-0.00039318681
-0.000393933413
-0.000394401563
-0.000394574144
-0.000394435104
-0.000393970069
-0.000393166672
-0.000392014619
-0.00039050561
-0.000388633221
-0.000386392797
-0.000383781355
-0.000380797464
-0.000377441004
-0.000373712798
-0.000369615075
-0.000365151223
-0.000360325481
-0.000355142707
-0.000349608187
-0.000343727476
-0.000337506282
-0.000330950385
-0.000324065621
-0.00031685792
-0.000309333394
-0.000301498502
-0.000293360261
-0.000284926498
-0.000276206127
-0.000267209433
-0.000257948353
-0.000248436725
-0.000238690469
-0.000228727865
-0.000218569835
-0.000208239456
-0.000197760292
-0.000187180503
-0.000176486175
-0.000165749742
-0.000154999001
-0.000144269852
-0.000133606857
-0.000123055008
-0.000112659586
-0.000102467164
-9.25249408e-05
-8.28796681e-05
-7.35768714e-05
-6.46600586e-05
-5.61698052e-05
-4.81428565e-05
-4.06112977e-05
-3.36018164e-05
-2.71350878e-05
-2.12253234e-05
-1.58800135e-05
-1.10998702e-05
-6.87897115e-06
-3.20509785e-06
-6.02474617e-08
2.57871491e-06
4.73929547e-06
6.45254163e-06
7.75218054e-06
8.67376051e-06
9.25382482e-06
9.52914397e-06
9.53602368e-06
9.30970126e-06
8.88384636e-06
8.29017269e-06
7.55817833e-06
6.71511487e-06
5.78628329e-06
4.79559921e-06
3.76586904e-06
2.71798807e-06
1.67031603e-06
6.38806886e-07
-3.63099708e-07
-1.32446879e-06
-2.23747759e-06
-3.09660227e-06
-3.89698086e-06
-4.63263609e-06
-5.30267376e-06
-5.90956173e-06
-6.45695263e-06
-6.9477206e-06
-7.37790112e-06
-7.75610233e-06
-8.10638964e-06
-8.44632968e-06
-8.77920188e-06
-9.07342848e-06
-9.31524518e-06
-9.51197341e-06
-9.66336051e-06
-9.76908068e-06
-9.83349989e-06
-9.86194233e-06
-9.85839221e-06
-9.82579713e-06
-9.76694433e-06
-9.68466183e-06
-9.58145727e-06
-9.45934459e-06
-9.31996295e-06
-9.16469016e-06
-8.99470835e-06
-8.81108946e-06
-8.61486749e-06
-8.40706402e-06
-8.18868815e-06
-7.96073083e-06
-7.72415539e-06
-7.47988559e-06
-7.22879523e-06
-6.97170076e-06
-6.70935696e-06
-6.44245554e-06
-6.171627e-06
-5.8974446e-06
-5.62042984e-06
-5.34105816e-06
-5.05976532e-06
-4.77695398e-06
-4.49299974e-06
-4.2082572e-06
-3.92306519e-06
-3.63775111e-06
-3.35263476e-06
-3.06803142e-06
-2.78425478e-06
-2.50161698e-06
-2.22043643e-06
-1.94101611e-06
-1.66372014e-06
-1.38870063e-06
-1.11685129e-06
-8.46564288e-07
-5.85756583e-07
-3.13708364e-07
-1.36248091e-07
-0.000318629323
-0.000318763346
-0.000318965316
-0.000319163461
-0.000319387043
-0.000319715964
-0.000320181998
-0.000320775839
-0.000321497731
-0.000322362761
-0.000323380984
-0.000324550254
-0.000325860492
-0.000327297279
-0.000328844477
-0.000330488524
-0.000332220567
-0.00033403684
-0.00033593666
-0.000337914405
-0.000339958145
-0.000342058872
-0.000344223282
-0.000346465131
-0.000348791933
-0.000351202799
-0.000353691574
-0.000356248399
-0.000358859723
-0.000361509009
-0.000364178195
-0.00036684896
-0.000369503454
-0.000372123605
-0.000374688496
-0.000377176777
-0.000379572159
-0.000381839059
-0.000383972075
-0.000385958071
-0.000387778046
-0.000389414178
-0.000390848154
-0.000392061477
-0.000393035782
-0.000393753282
-0.000394196892
-0.000394350479
-0.0003941992
-0.000393729745
-0.000392930472
-0.000391791429
-0.000390304353
-0.000388462658
-0.000386261404
-0.000383697235
-0.000380768253
-0.000377473839
-0.000373814448
-0.000369791547
-0.000365407443
-0.000360665078
-0.00035556783
-0.000350119354
-0.000344323448
-0.000338183972
-0.000331704821
-0.000324889946
-0.000317743437
-0.000310269634
-0.00030247329
-0.000294359752
-0.000285935171
-0.000277206746
-0.000268182991
-0.00025887403
-0.000249291895
-0.000239450846
-0.00022936774
-0.000219062268
-0.000208558359
-0.000197882594
-0.000187051709
-0.000176119849
-0.00016510639
-0.000154054774
-0.000143008245
-0.000132010769
-0.000121110211
-0.000110356996
-9.98030584e-05
-8.95012373e-05
-7.95044156e-05
-6.98645405e-05
-6.06315832e-05
-5.18524271e-05
-4.35697501e-05
-3.58209592e-05
-2.86372382e-05
-2.20427521e-05
-1.60540558e-05
-1.06797511e-05
-5.92040314e-06
-1.76871868e-06
1.7900267e-06
4.77733941e-06
7.22068232e-06
9.15251834e-06
1.06092748e-05
1.16302796e-05
1.22567145e-05
1.25306238e-05
1.24940096e-05
1.21880367e-05
1.1652359e-05
1.09245786e-05
1.00398422e-05
9.03058961e-06
7.92649324e-06
6.75461245e-06
5.53968142e-06
4.30426281e-06
3.06852077e-06
1.84993711e-06
6.63168359e-07
-4.79888177e-07
-1.56971398e-06
-2.59902868e-06
-3.56256718e-06
-4.45676575e-06
-5.27988766e-06
-6.03264901e-06
-6.71737398e-06
-7.33774269e-06
-7.90040826e-06
-8.42065962e-06
-8.9020578e-06
-9.33208178e-06
-9.69947678e-06
-1.00036036e-05
-1.02624965e-05
-1.04756194e-05
-1.06433551e-05
-1.07669822e-05
-1.08478929e-05
-1.08889896e-05
-1.08938973e-05
-1.08659343e-05
-1.08078772e-05
-1.07221821e-05
-1.06112671e-05
-1.04775622e-05
-1.03234258e-05
-1.01510851e-05
-9.96257941e-06
-9.75970659e-06
-9.54401479e-06
-9.31683203e-06
-9.07930523e-06
-8.83244266e-06
-8.57715504e-06
-8.31428549e-06
-8.04462572e-06
-7.76892386e-06
-7.48788891e-06
-7.20219282e-06
-6.91247013e-06
-6.61931646e-06
-6.32328757e-06
-6.02489928e-06
-5.72462818e-06
-5.42291337e-06
-5.12015876e-06
-4.81673564e-06
-4.51298594e-06
-4.20922578e-06
-3.90574916e-06
-3.60283185e-06
-3.30073491e-06
-2.9997083e-06
-2.69999122e-06
-2.40181977e-06
-2.10540275e-06
-1.81099644e-06
-1.51861525e-06
-1.22899017e-06
-9.40152005e-07
-6.59565316e-07
-3.64067206e-07
-1.58576974e-07
-0.000320324938
-0.000320418532
-0.000320583701
-0.000320755997
-0.000320957951
-0.000321270189
-0.000321725155
-0.000322310372
-0.000323021163
-0.000323867675
-0.000324855715
-0.000325980204
-0.000327231063
-0.000328599151
-0.00033007778
-0.000331662755
-0.000333349591
-0.000335131589
-0.000337000002
-0.000338949698
-0.000340975199
-0.000343071196
-0.000345232595
-0.000347457059
-0.000349744591
-0.000352094617
-0.000354504535
-0.000356969007
-0.000359479175
-0.000362022466
-0.000364582933
-0.000367141367
-0.000369675536
-0.000372163449
-0.000374588696
-0.000376918873
-0.000379263425
-0.000381444751
-0.000383536346
-0.000385473502
-0.000387240662
-0.000388819477
-0.000390192009
-0.000391343496
-0.000392258805
-0.000392922222
-0.000393318046
-0.000393431165
-0.000393247511
-0.000392754323
-0.00039194029
-0.000390795657
-0.000389312304
-0.000387483767
-0.000385305211
-0.000382773338
-0.000379886256
-0.000376643292
-0.000373044799
-0.000369091976
-0.000364786667
-0.000360131153
-0.000355127947
-0.000349779625
-0.000344088695
-0.000338057507
-0.000331688218
-0.000324982807
-0.000317943162
-0.000310571222
-0.0003028692
-0.000294839867
-0.00028648687
-0.000277815074
-0.000268830885
-0.000259542555
-0.000249960467
-0.000240097422
-0.000229968922
-0.000219593415
-0.000208992018
-0.00019818801
-0.000187216625
-0.000176098064
-0.000164877045
-0.000153592153
-0.000142286675
-0.000131009002
-0.000119810914
-0.000108747071
-9.7874597e-05
-8.72522957e-05
-7.69395885e-05
-6.69953256e-05
-5.74764983e-05
-4.84368692e-05
-3.9925578e-05
-3.19857993e-05
-2.46535385e-05
-1.79566241e-05
-1.19139601e-05
-6.53509458e-06
-1.82012073e-06
2.24008717e-06
5.66332209e-06
8.47521618e-06
1.07081974e-05
1.24002922e-05
1.3593844e-05
1.43342133e-05
1.4668517e-05
1.46444552e-05
1.43092637e-05
1.37088144e-05
1.28868807e-05
1.18845745e-05
1.07399547e-05
9.48780816e-06
8.15959801e-06
6.78354675e-06
5.38478165e-06
3.98544562e-06
2.60471869e-06
1.25883698e-06
-3.88102573e-08
-1.27750174e-06
-2.44896237e-06
-3.54721255e-06
-4.56839035e-06
-5.51051231e-06
-6.37325766e-06
-7.15793337e-06
-7.86713568e-06
-8.50377518e-06
-9.0697822e-06
-9.5660512e-06
-9.99569114e-06
-1.03464858e-05
-1.0662006e-05
-1.09387754e-05
-1.11731349e-05
-1.13620915e-05
-1.15053813e-05
-1.16045646e-05
-1.16615019e-05
-1.16786949e-05
-1.16593263e-05
-1.16067596e-05
-1.15241887e-05
-1.14145781e-05
-1.1280684e-05
-1.1124977e-05
-1.09495716e-05
-1.0756293e-05
-1.05467925e-05
-1.03226165e-05
-1.00852268e-05
-9.8360041e-06
-9.57624465e-06
-9.30715321e-06
-9.02983757e-06
-8.74531044e-06
-8.45449667e-06
-8.15824074e-06
-7.85731232e-06
-7.55241084e-06
-7.24416967e-06
-6.93316116e-06
-6.61990211e-06
-6.30485933e-06
-5.98845471e-06
-5.67107055e-06
-5.353055e-06
-5.03472688e-06
-4.71638029e-06
-4.39828843e-06
-4.08070627e-06
-3.76387269e-06
-3.44801155e-06
-3.13333253e-06
-2.82002847e-06
-2.50827994e-06
-2.19822874e-06
-1.89005019e-06
-1.58367019e-06
-1.27972476e-06
-9.76263137e-07
-6.80931219e-07
-3.72243162e-07
-1.57123498e-07
-0.000322012338
-0.00032212668
-0.000322324758
-0.000322541739
-0.00032279379
-0.000323151832
-0.000323641635
-0.000324247682
-0.000324964549
-0.000325803265
-0.000326772216
-0.000327870657
-0.00032909407
-0.000330438007
-0.000331896921
-0.000333460911
-0.000335117592
-0.000336853989
-0.000338660564
-0.000340533648
-0.000342476995
-0.000344491736
-0.000346576029
-0.000348728655
-0.000350948291
-0.000353231953
-0.000355574999
-0.000357971189
-0.000360412123
-0.000362887017
-0.000365383438
-0.000367888749
-0.000370391427
-0.000372878327
-0.000375328622
-0.000377746445
-0.00037995313
-0.000382123665
-0.000384183102
-0.000386075695
-0.000387809673
-0.000389365314
-0.000390731679
-0.000391891609
-0.000392825662
-0.000393515165
-0.000393942112
-0.000394089514
-0.000393941939
-0.00039348587
-0.000392709826
-0.00039160428
-0.000390161491
-0.000388375368
-0.00038624138
-0.000383756485
-0.000380919006
-0.000377728459
-0.000374185329
-0.000370290821
-0.000366046594
-0.000361454509
-0.000356516394
-0.00035123386
-0.000345608161
-0.000339640126
-0.000333330166
-0.000326678351
-0.00031968456
-0.000312348676
-0.00030467081
-0.000296651559
-0.000288292268
-0.000279595343
-0.000270564596
-0.000261205632
-0.000251526252
-0.000241536856
-0.000231250774
-0.00022068455
-0.00020985861
-0.00019879782
-0.000187527711
-0.000176087897
-0.000164510391
-0.000152838677
-0.000141120448
-0.000129407409
-0.000117755841
-0.000106226189
-9.48822673e-05
-8.37903468e-05
-7.30180209e-05
-6.26328281e-05
-5.27006709e-05
-4.32841069e-05
-3.44405891e-05
-2.62207468e-05
-1.86668273e-05
-1.18113897e-05
-5.6763325e-06
-2.72334376e-07
4.40126824e-06
8.35616566e-06
1.16143501e-05
1.42070396e-05
1.61733337e-05
1.75586883e-05
1.84133028e-05
1.8790506e-05
1.87452162e-05
1.83325338e-05
1.76065115e-05
1.66191266e-05
1.54194686e-05
1.4053142e-05
1.25618736e-05
1.09833075e-05
9.3509673e-06
7.69434661e-06
6.03908282e-06
4.40715654e-06
2.81708061e-06
1.28409002e-06
-1.79643989e-07
-1.56476596e-06
-2.86445575e-06
-4.07414224e-06
-5.19120022e-06
-6.21461453e-06
-7.14465774e-06
-7.98272052e-06
-8.73160996e-06
-9.39675114e-06
-9.98766579e-06
-1.05165799e-05
-1.09836305e-05
-1.1399564e-05
-1.17335084e-05
-1.2003877e-05
-1.22222972e-05
-1.23906324e-05
-1.25100904e-05
-1.25834359e-05
-1.26138365e-05
-1.26044163e-05
-1.25584136e-05
-1.24791046e-05
-1.23695919e-05
-1.223272e-05
-1.20711255e-05
-1.18873029e-05
-1.16836131e-05
-1.1462252e-05
-1.1225196e-05
-1.09741889e-05
-1.07107794e-05
-1.04363617e-05
-1.01521974e-05
-9.85942925e-06
-9.55909819e-06
-9.25215918e-06
-8.93949067e-06
-8.62189876e-06
-8.30012113e-06
-7.97483241e-06
-7.64664935e-06
-7.31613523e-06
-6.98380348e-06
-6.65012105e-06
-6.31551119e-06
-5.98035637e-06
-5.64500091e-06
-5.30975332e-06
-4.97488899e-06
-4.64065303e-06
-4.30726292e-06
-3.97491154e-06
-3.64376946e-06
-3.31398699e-06
-2.9856927e-06
-2.65899901e-06
-2.33397623e-06
-2.01072772e-06
-1.68910171e-06
-1.36966874e-06
-1.0503082e-06
-7.38502329e-07
-4.11082917e-07
-1.74316614e-07
-0.000323619356
-0.000323740348
-0.00032395103
-0.00032418218
-0.000324446884
-0.000324814357
-0.000325310298
-0.000325919421
-0.000326635896
-0.000327470054
-0.000328429614
-0.000329513041
-0.000330714405
-0.000332026904
-0.00033344283
-0.000334953494
-0.000336551154
-0.000338231535
-0.000339992205
-0.0003418284
-0.000343732126
-0.000345698006
-0.000347724395
-0.000349811191
-0.000351958549
-0.000354166014
-0.000356431603
-0.000358751037
-0.000361117296
-0.000363520446
-0.000365947646
-0.00036838303
-0.000370807588
-0.00037320434
-0.000375568802
-0.000377871165
-0.000380125959
-0.00038228563
-0.000384277915
-0.000386175571
-0.000387908795
-0.000389473674
-0.000390847564
-0.000392009605
-0.000392943536
-0.000393632825
-0.00039406097
-0.000394212423
-0.000394072955
-0.000393629829
-0.000392871867
-0.000391789509
-0.000390374887
-0.000388621878
-0.000386526082
-0.000384084733
-0.000381296512
-0.000378161304
-0.000374679896
-0.000370853664
-0.000366684255
-0.000362173287
-0.000357322089
-0.000352131475
-0.000346601589
-0.000340731816
-0.000334520757
-0.000327966287
-0.000321065697
-0.00031381591
-0.000306213792
-0.000298256547
-0.000289942149
-0.000281269796
-0.000272240356
-0.000262856752
-0.00025312434
-0.000243051251
-0.000232648791
-0.000221931884
-0.000210919362
-0.000199634528
-0.000188106647
-0.000176360314
-0.000164443469
-0.000152396667
-0.00014026801
-0.000128113448
-0.000115994495
-0.000103977863
-9.21350372e-05
-8.05411944e-05
-6.92738316e-05
-5.84111114e-05
-4.80299098e-05
-3.82036686e-05
-2.90001563e-05
-2.04792582e-05
-1.26909548e-05
-5.67362089e-06
5.47237564e-07
5.95970408e-06
1.05655945e-05
1.43800216e-05
1.74304262e-05
1.97551589e-05
2.1401729e-05
2.24248421e-05
2.28843531e-05
2.28432499e-05
2.23657627e-05
2.1515672e-05
2.0354867e-05
1.89421756e-05
1.73324763e-05
1.55760797e-05
1.37183574e-05
1.17995898e-05
9.85499717e-06
7.91490795e-06
6.00502157e-06
4.14671907e-06
2.35739168e-06
6.50778434e-07
-9.62688539e-07
-2.47553466e-06
-3.88290245e-06
-5.18224099e-06
-6.37304351e-06
-7.45664695e-06
-8.4360888e-06
-9.31584634e-06
-1.01007572e-05
-1.07932892e-05
-1.13908061e-05
-1.18943673e-05
-1.23128678e-05
-1.26727482e-05
-1.29749753e-05
-1.3215038e-05
-1.33977004e-05
-1.35285483e-05
-1.3610613e-05
-1.3646641e-05
-1.36398967e-05
-1.35937196e-05
-1.35114069e-05
-1.33962246e-05
-1.32513123e-05
-1.30796048e-05
-1.28838272e-05
-1.26665094e-05
-1.24299819e-05
-1.21763647e-05
-1.19076096e-05
-1.16255127e-05
-1.13317055e-05
-1.10276618e-05
-1.07147121e-05
-1.03940576e-05
-1.00667817e-05
-9.73386201e-06
-9.39617953e-06
-9.0545288e-06
-8.70962626e-06
-8.36211722e-06
-8.01258105e-06
-7.66153569e-06
-7.30944211e-06
-6.95670928e-06
-6.60369894e-06
-6.25073079e-06
-5.89808758e-06
-5.54601969e-06
-5.19474926e-06
-4.84447343e-06
-4.49536629e-06
-4.14758011e-06
-3.80124553e-06
-3.4564715e-06
-3.11334209e-06
-2.77192094e-06
-2.43222545e-06
-2.09430174e-06
-1.75794337e-06
-1.42366526e-06
-1.0893853e-06
-7.62701467e-07
-4.21822902e-07
-1.74283245e-07
-0.000325132711
-0.00032525715
-0.000325475385
-0.000325715511
-0.000325989598
-0.000326365684
-0.000326867384
-0.000327477347
-0.000328188325
-0.000329009975
-0.000329949969
-0.000331007137
-0.000332176292
-0.00033345225
-0.000334829929
-0.000336303557
-0.000337867176
-0.000339514846
-0.000341239737
-0.000343035178
-0.000344897154
-0.000346823363
-0.00034881129
-0.000350858696
-0.00035296431
-0.000355127372
-0.000357346305
-0.000359617742
-0.000361936009
-0.000364292954
-0.000366678296
-0.000369080616
-0.000371488617
-0.000373886485
-0.000376246571
-0.000378569668
-0.000380830221
-0.000383026438
-0.000385176858
-0.000386983794
-0.000388716565
-0.000390300629
-0.000391703379
-0.000392906655
-0.000393890058
-0.000394633954
-0.000395119785
-0.000395329999
-0.000395248646
-0.00039486183
-0.000394157874
-0.00039312728
-0.000391762592
-0.000390058279
-0.000388010631
-0.000385617656
-0.000382878889
-0.000379795113
-0.000376367995
-0.000372599674
-0.000368492345
-0.000364047865
-0.000359267405
-0.000354151171
-0.000348698205
-0.00034290629
-0.00033677197
-0.000330290678
-0.00032345698
-0.000316264893
-0.000308708254
-0.000300781132
-0.000292478237
-0.000283795361
-0.000274729842
-0.000265281034
-0.000255450808
-0.000245244053
-0.000234669114
-0.000223738179
-0.000212467843
-0.000200879093
-0.000188998855
-0.000176858258
-0.000164503014
-0.000151973345
-0.000139320587
-0.000126605776
-0.000113896277
-0.000101266078
-8.87955909e-05
-7.65705118e-05
-6.46802406e-05
-5.32159103e-05
-4.22679811e-05
-3.19235213e-05
-2.22633221e-05
-1.33590138e-05
-5.27040511e-06
1.95676736e-06
8.29250471e-06
1.37234866e-05
1.82532328e-05
2.1901491e-05
2.47029192e-05
2.67051883e-05
2.7966672e-05
2.85538935e-05
2.85389054e-05
2.79967527e-05
2.70031421e-05
2.56324058e-05
2.39558145e-05
2.20402578e-05
1.99472907e-05
1.77325214e-05
1.54452986e-05
1.31286561e-05
1.08194623e-05
8.54871897e-06
6.34196413e-06
4.21973138e-06
2.19803328e-06
2.88847917e-07
-1.49940278e-06
-3.16139008e-06
-4.69443457e-06
-6.09807727e-06
-7.37365425e-06
-8.52384814e-06
-9.5521906e-06
-1.04627435e-05
-1.12606997e-05
-1.19548997e-05
-1.25558172e-05
-1.30854975e-05
-1.353042e-05
-1.38902719e-05
-1.41781361e-05
-1.43997835e-05
-1.45595772e-05
-1.4662825e-05
-1.47141321e-05
-1.47175535e-05
-1.46770921e-05
-1.45966147e-05
-1.44797828e-05
-1.43300845e-05
-1.41508285e-05
-1.39451212e-05
-1.37158555e-05
-1.34656969e-05
-1.31970696e-05
-1.29121691e-05
-1.26129669e-05
-1.23012463e-05
-1.19786217e-05
-1.16465505e-05
-1.13063511e-05
-1.09592163e-05
-1.06062211e-05
-1.02483325e-05
-9.88641972e-06
-9.52126266e-06
-9.15355947e-06
-8.78393378e-06
-8.41294169e-06
-8.04107836e-06
-7.66878407e-06
-7.29644937e-06
-6.92441891e-06
-6.55299483e-06
-6.1824395e-06
-5.81297764e-06
-5.44479874e-06
-5.07805955e-06
-4.71288646e-06
-4.34937816e-06
-3.98760771e-06
-3.62762451e-06
-3.26945281e-06
-2.91309776e-06
-2.55852057e-06
-2.20571614e-06
-1.85442928e-06
-1.5051422e-06
-1.15567568e-06
-8.1353344e-07
-4.5569141e-07
-1.8891576e-07
-0.000326547621
-0.000326674438
-0.000326897505
-0.000327142551
-0.000327420937
-0.000327800136
-0.000328302695
-0.000328910426
-0.000329615726
-0.000330428201
-0.000331355568
-0.000332396705
-0.000333546465
-0.000334799624
-0.000336150961
-0.000337594456
-0.000339123626
-0.000340732587
-0.000342416356
-0.000344170206
-0.000345989176
-0.000347868509
-0.000349805049
-0.000351797846
-0.000353847447
-0.00035595469
-0.000358119493
-0.000360340008
-0.000362612141
-0.000364929294
-0.000367282295
-0.000369659202
-0.000372044731
-0.000374422442
-0.00037677374
-0.000379111652
-0.000381375159
-0.000383540947
-0.000385550539
-0.000387595258
-0.000389435057
-0.00039109488
-0.000392569978
-0.000393840314
-0.000394888027
-0.000395695164
-0.000396243189
-0.000396514314
-0.000396492351
-0.000396163158
-0.000395514835
-0.000394537747
-0.000393224489
-0.00039156985
-0.000389570751
-0.000387226114
-0.000384536619
-0.000381504324
-0.000378132188
-0.000374423536
-0.000370381518
-0.000366008612
-0.000361306187
-0.000356274158
-0.000350910745
-0.000345212353
-0.000339173566
-0.000332787281
-0.000326044963
-0.000318936999
-0.000311453168
-0.000303583187
-0.000295317304
-0.000286646911
-0.000277565142
-0.000268067418
-0.000258151947
-0.000247820205
-0.000237077353
-0.000225932701
-0.000214400235
-0.000202498305
-0.000190248417
-0.000177699727
-0.000164874152
-0.000151821799
-0.000138596958
-0.00012526383
-0.000111895887
-9.85752319e-05
-8.53925544e-05
-7.2446013e-05
-5.98394203e-05
-4.76798577e-05
-3.60746952e-05
-2.51281356e-05
-1.49374674e-05
-5.58927047e-06
2.84412147e-06
1.03076231e-05
1.67656163e-05
2.22031858e-05
2.66262943e-05
3.00609094e-05
3.25511885e-05
3.41569116e-05
3.49504006e-05
3.50131692e-05
3.44325427e-05
3.329845e-05
3.17005419e-05
2.97257425e-05
2.74562878e-05
2.49682586e-05
2.23305914e-05
1.96045163e-05
1.68433602e-05
1.40926495e-05
1.1390443e-05
8.76782351e-06
6.2494962e-06
3.85444045e-06
1.59657576e-06
-5.14583345e-07
-2.4733011e-06
-4.27703662e-06
-5.92591559e-06
-7.42226973e-06
-8.77027007e-06
-9.97571088e-06
-1.10459602e-05
-1.19899278e-05
-1.28166533e-05
-1.35345429e-05
-1.41168173e-05
-1.46009331e-05
-1.50056602e-05
-1.53292495e-05
-1.55768433e-05
-1.57557274e-05
-1.58716215e-05
-1.59298207e-05
-1.59353459e-05
-1.58927906e-05
-1.58065032e-05
-1.56806357e-05
-1.55191084e-05
-1.53256042e-05
-1.51035543e-05
-1.48561145e-05
-1.45861675e-05
-1.42963525e-05
-1.39891024e-05
-1.36666544e-05
-1.33310545e-05
-1.29841485e-05
-1.26275886e-05
-1.22628499e-05
-1.18912484e-05
-1.1513957e-05
-1.11320209e-05
-1.07463711e-05
-1.03578364e-05
-9.96715361e-06
-9.57497576e-06
-9.18187961e-06
-8.78837213e-06
-8.39489607e-06
-8.00183516e-06
-7.60951933e-06
-7.21822962e-06
-6.82820346e-06
-6.4396399e-06
-6.05270403e-06
-5.66753099e-06
-5.28422904e-06
-4.90288122e-06
-4.52354644e-06
-4.14625958e-06
-3.77103151e-06
-3.39784637e-06
-3.026667e-06
-2.65741073e-06
-2.29002733e-06
-1.92421998e-06
-1.56042742e-06
-1.19648704e-06
-8.39949372e-07
-4.68751357e-07
-1.90516708e-07
-0.000327861781
-0.000327990241
-0.00032821619
-0.000328463122
-0.000328742326
-0.000329121341
-0.000329621912
-0.000330224876
-0.000330921987
-0.000331722568
-0.000332634243
-0.000333655908
-0.000334782591
-0.000336009474
-0.000337332049
-0.000338745438
-0.000340244283
-0.000341823111
-0.000343476643
-0.000345199286
-0.000346985326
-0.000348830186
-0.000350731227
-0.000352687669
-0.000354700126
-0.000356769954
-0.000358898317
-0.000361085071
-0.00036332786
-0.000365621671
-0.00036795887
-0.000370329762
-0.000372723114
-0.000375126634
-0.000377533346
-0.000379883689
-0.000382193205
-0.000384430972
-0.000386569829
-0.00038862577
-0.000390536333
-0.000392282557
-0.000393844462
-0.000395205985
-0.000396348343
-0.000397251103
-0.000397893895
-0.000398257135
-0.00039832295
-0.000398075909
-0.000397503339
-0.000396595374
-0.000395344866
-0.000393747289
-0.00039180064
-0.000389505279
-0.000386863622
-0.000383879672
-0.000380558406
-0.000376905078
-0.000372924505
-0.00036862041
-0.000363994834
-0.000359047674
-0.000353776361
-0.000348175698
-0.000342237877
-0.000335952682
-0.000329307857
-0.000322289619
-0.000314883264
-0.000307073846
-0.000298846857
-0.000290188908
-0.000281088384
-0.000271536046
-0.000261525605
-0.000251054229
-0.000240123064
-0.000228737717
-0.000216908773
-0.000204652569
-0.000191991729
-0.000178959735
-0.000165588994
-0.000151929965
-0.000138038039
-0.000123980721
-0.000109837826
-9.57003186e-05
-8.16705418e-05
-6.78612571e-05
-5.43936506e-05
-4.13944534e-05
-2.89922268e-05
-1.7312933e-05
-6.47502204e-06
3.41562245e-06
1.22704557e-05
2.00223367e-05
2.66285182e-05
3.20722844e-05
3.63631201e-05
3.95354398e-05
4.16460482e-05
4.27706165e-05
4.2999529e-05
4.24334448e-05
4.11789116e-05
3.93442944e-05
3.70362153e-05
3.43566243e-05
3.14005499e-05
2.82545117e-05
2.49955508e-05
2.16907943e-05
1.8397458e-05
1.51631935e-05
1.20266867e-05
9.0184168e-06
6.16151262e-06
3.47264335e-06
9.62899038e-07
-1.36136903e-06
-3.49776711e-06
-5.44714889e-06
-7.21297803e-06
-8.80075077e-06
-1.02174479e-05
-1.14709926e-05
-1.2569661e-05
-1.3522094e-05
-1.43390523e-05
-1.50283596e-05
-1.56281844e-05
-1.61085323e-05