/*--------------------------------*- C++ -*----------------------------------*\
| =========                 |                                                 |
| \\      /  F ield         | OpenFOAM: The Open Source CFD Toolbox           |
|  \\    /   O peration     | Version:  v2012                                 |
|   \\  /    A nd           | Website:  www.openfoam.com                      |
|    \\/     M anipulation  |                                                 |
\*---------------------------------------------------------------------------*/
FoamFile
{
    version     2.0;
    format      ascii;
    class       surfaceScalarField;
    location    "2.49";
    object      phiHbyA;
}
// * * * * * * * * * * * * * * * * * * * * * * * * * * * * * * * * * * * * * //

dimensions      [0 3 -1 0 0 0 0];
oriented        oriented;


internalField   nonuniform List<scalar> 
56481
(
6.66641388e-07
6.92222653e-11
6.66553206e-07
2.65284357e-10
6.66380724e-07
5.24097114e-10
6.66112869e-07
8.20257175e-10
6.65751178e-07
1.11885635e-09
6.65306753e-07
1.38747746e-09
6.64797346e-07
1.60012239e-09
6.64245049e-07
1.73842656e-09
6.63673823e-07
1.79334024e-09
6.6310705e-07
1.76588471e-09
6.62565912e-07
1.66457458e-09
6.62068921e-07
1.50093084e-09
6.61631839e-07
1.28742802e-09
6.61266704e-07
1.0400091e-09
6.60979455e-07
7.82422554e-10
6.60766912e-07
5.47397364e-10
6.60614701e-07
3.71966789e-10
6.60497583e-07
2.88689337e-10
6.60383111e-07
3.15749491e-10
6.60239375e-07
4.50980327e-10
6.60041956e-07
6.74342023e-10
6.59777377e-07
9.53481368e-10
6.59443839e-07
1.24939938e-09
6.59049666e-07
1.52384093e-09
6.58610418e-07
1.74565195e-09
6.58145818e-07
1.89336551e-09
6.57677053e-07
1.95527127e-09
6.57224743e-07
1.92869546e-09
6.56807654e-07
1.81891171e-09
6.56441924e-07
1.63798525e-09
6.56140341e-07
1.40403106e-09
6.55911546e-07
1.1408649e-09
6.55759867e-07
8.77508994e-10
6.55678909e-07
6.45792569e-10
6.55656001e-07
4.77463778e-10
6.55671606e-07
4.01773101e-10
6.55701543e-07
4.36685256e-10
6.55722351e-07
5.82899621e-10
6.55714224e-07
8.24428288e-10
6.55664208e-07
1.12997117e-09
6.55568113e-07
1.45940999e-09
6.55430394e-07
1.77284491e-09
6.55261968e-07
2.03943167e-09
6.55076643e-07
2.24332222e-09
6.54887357e-07
2.38495962e-09
6.5470331e-07
2.477677e-09
6.54528711e-07
2.54122986e-09
6.54363163e-07
2.59483209e-09
6.54203188e-07
2.65209119e-09
6.54044104e-07
2.71911005e-09
6.53881557e-07
2.79556018e-09
6.53712323e-07
2.87743996e-09
6.5353441e-07
2.95994606e-09
6.53346706e-07
3.03934482e-09
6.53148533e-07
3.11352823e-09
6.52939324e-07
3.18160611e-09
6.52718515e-07
3.24315026e-09
6.52485599e-07
3.29759313e-09
6.52240239e-07
3.34398186e-09
6.51982374e-07
3.3810328e-09
6.51712276e-07
3.40731788e-09
6.51430559e-07
3.42143502e-09
6.51138171e-07
3.42209955e-09
6.50836382e-07
3.4081682e-09
6.50526769e-07
3.37862914e-09
6.50211204e-07
3.33259443e-09
6.49891842e-07
3.26930468e-09
6.49571099e-07
3.18813546e-09
6.49251627e-07
3.0886167e-09
6.48936292e-07
2.9704443e-09
6.48628147e-07
2.83348314e-09
6.48330418e-07
2.67777585e-09
6.48046496e-07
2.50354127e-09
6.47779931e-07
2.31116335e-09
6.47534437e-07
2.1011776e-09
6.47313897e-07
1.87423938e-09
6.47122281e-07
1.63115627e-09
6.46963515e-07
1.37285331e-09
6.46841311e-07
1.10033459e-09
6.46758946e-07
8.14766571e-10
6.46718901e-07
5.17680904e-10
6.46722235e-07
2.11380456e-10
6.46774206e-07
-1.03408518e-10
6.46884002e-07
-4.2465635e-10
6.47052182e-07
-7.50326294e-10
6.47279523e-07
-1.08002497e-09
6.4756658e-07
-1.41175239e-09
6.47913734e-07
-1.74348245e-09
6.48320904e-07
-2.07290331e-09
6.48787419e-07
-2.39742959e-09
6.4931198e-07
-2.7143435e-09
6.49892624e-07
-3.02083648e-09
6.5052673e-07
-3.31403253e-09
6.51211044e-07
-3.59105189e-09
6.51941732e-07
-3.84908661e-09
6.52714437e-07
-4.08547657e-09
6.53524336e-07
-4.29779999e-09
6.54366198e-07
-4.48395378e-09
6.55234454e-07
-4.6422127e-09
6.5612327e-07
-4.77128447e-09
6.57026635e-07
-4.87034039e-09
6.57938459e-07
-4.93902085e-09
6.58852674e-07
-4.97744151e-09
6.59763342e-07
-4.9861728e-09
6.60664752e-07
-4.9662175e-09
6.61551509e-07
-4.91896287e-09
6.62418608e-07
-4.84614575e-09
6.63261494e-07
-4.74978462e-09
6.64076112e-07
-4.63212883e-09
6.64858927e-07
-4.49559109e-09
6.65606949e-07
-4.34268995e-09
6.66317727e-07
-4.1759824e-09
6.6698934e-07
-3.99801587e-09
6.67620374e-07
-3.81127839e-09
6.68209876e-07
-3.618149e-09
6.68757308e-07
-3.42086564e-09
6.69262465e-07
-3.22149448e-09
6.69725455e-07
-3.02188163e-09
6.70146712e-07
-2.82359635e-09
6.70527116e-07
-2.6279125e-09
6.70868094e-07
-2.43584363e-09
6.71171469e-07
-2.24825413e-09
6.71438991e-07
-2.0659296e-09
6.71672209e-07
-1.88943932e-09
6.71873006e-07
-1.71957876e-09
6.72043514e-07
-1.55681576e-09
6.72185859e-07
-1.40130376e-09
6.72302125e-07
-1.25317227e-09
6.72394326e-07
-1.11248487e-09
6.72464377e-07
-9.79221279e-10
6.72514084e-07
-8.53245882e-10
6.72545218e-07
-7.34383528e-10
6.72559563e-07
-6.2242666e-10
6.7255893e-07
-5.17139193e-10
6.72545168e-07
-4.1828997e-10
6.725202e-07
-3.25717563e-10
6.72486091e-07
-2.39421218e-10
6.7244497e-07
-1.59554482e-10
6.72398736e-07
-8.64107435e-11
6.72348849e-07
-2.08005969e-11
6.72293139e-07
3.97588485e-11
6.72228851e-07
9.24879838e-11
6.72156674e-07
1.37745199e-10
6.72077996e-07
1.77283611e-10
6.71993893e-07
2.12065648e-10
6.71905293e-07
2.42664548e-10
6.7181301e-07
2.69504393e-10
6.71717765e-07
2.92968924e-10
6.71620213e-07
3.1342111e-10
6.71520949e-07
3.31175426e-10
6.71420523e-07
3.46495109e-10
6.71319428e-07
3.59607629e-10
6.71218105e-07
3.70709729e-10
6.71116935e-07
3.7996862e-10
6.71016241e-07
3.87527738e-10
6.70916296e-07
3.93513731e-10
6.70817323e-07
3.98042357e-10
6.70719509e-07
4.01221988e-10
6.70623011e-07
4.0315555e-10
6.70527963e-07
4.03942684e-10
6.7043448e-07
4.03679734e-10
6.70342667e-07
4.02459866e-10
6.70252616e-07
4.00371685e-10
6.70164414e-07
3.97499518e-10
6.70078138e-07
3.93921591e-10
6.69993858e-07
3.89710127e-10
6.69911638e-07
3.84930498e-10
6.69831531e-07
3.79641486e-10
6.69753585e-07
3.73894788e-10
6.69677839e-07
3.67736076e-10
6.69604323e-07
3.61205669e-10
6.69533061e-07
3.54338802e-10
6.69464066e-07
3.47167092e-10
6.69397351e-07
3.39719345e-10
6.69332919e-07
3.32021729e-10
6.69270771e-07
3.2409884e-10
6.69210907e-07
3.15973993e-10
6.69153326e-07
3.07668842e-10
6.69098024e-07
2.99203878e-10
6.69045001e-07
2.90597881e-10
6.68994258e-07
2.81867913e-10
6.68945797e-07
2.73028328e-10
6.68899625e-07
2.64090863e-10
6.68855754e-07
2.55062649e-10
6.68814201e-07
2.45949338e-10
6.68775e-07
2.36728232e-10
6.68738181e-07
2.27457755e-10
6.68703901e-07
2.17714034e-10
6.68671988e-07
2.09145212e-10
1.93297636e-10
6.66660041e-07
7.62846435e-11
6.66601383e-07
3.24613447e-10
6.66456745e-07
6.69640084e-10
6.66206853e-07
1.07120567e-09
6.65849524e-07
1.4773354e-09
6.65395593e-07
1.84265712e-09
6.64864558e-07
2.13250566e-09
6.64281394e-07
2.32300456e-09
6.63673702e-07
2.40247496e-09
6.63068842e-07
2.37219394e-09
6.62491879e-07
2.24297532e-09
6.61964883e-07
2.02933155e-09
6.61506739e-07
1.74692406e-09
6.61131927e-07
1.41609913e-09
6.60847712e-07
1.06782584e-09
6.60650717e-07
7.45482685e-10
6.60524993e-07
4.98694647e-10
6.60443633e-07
3.70992543e-10
6.603727e-07
3.87590152e-10
6.60276056e-07
5.48528687e-10
6.60122315e-07
8.29016447e-10
6.59890713e-07
1.18603693e-09
6.5957339e-07
1.56765693e-09
6.59175483e-07
1.92263549e-09
6.5871326e-07
2.20870379e-09
6.58210421e-07
2.39696861e-09
6.57694033e-07
2.47235197e-09
6.57191355e-07
2.43199276e-09
6.56727734e-07
2.28307759e-09
6.56325262e-07
2.0409283e-09
6.560017e-07
1.72798722e-09
6.55769199e-07
1.37368351e-09
6.55632648e-07
1.01430374e-09
6.5558747e-07
6.91143243e-10
6.55618212e-07
4.46834208e-10
6.55701122e-07
3.18910855e-10
6.55806453e-07
3.31327515e-10
6.55901235e-07
4.88025241e-10
6.55955949e-07
7.69572993e-10
6.55950179e-07
1.13556034e-09
6.55876105e-07
1.53326999e-09
6.55738982e-07
1.90972353e-09
6.55554406e-07
2.22373413e-09
6.55343231e-07
2.45419399e-09
6.55125764e-07
2.6020926e-09
6.54917026e-07
2.68605017e-09
6.54724355e-07
2.73350471e-09
6.54547676e-07
2.77108578e-09
6.54381773e-07
2.81754532e-09
6.54219322e-07
2.88109175e-09
6.54053488e-07
2.96091263e-09
6.53879342e-07
3.05109727e-09
6.5369407e-07
3.14472858e-09
6.53496385e-07
3.2365453e-09
6.53285725e-07
3.32371354e-09
6.53061662e-07
3.40520826e-09
6.52823676e-07
3.48069447e-09
6.52571213e-07
3.54963754e-09
6.5230387e-07
3.61093238e-09
6.52021567e-07
3.66297285e-09
6.51724634e-07
3.7039225e-09
6.51413815e-07
3.73195953e-09
6.5109025e-07
3.74540627e-09
6.50755437e-07
3.74275956e-09
6.50411208e-07
3.72267274e-09
6.50059712e-07
3.68394106e-09
6.49703393e-07
3.62550552e-09
6.4934498e-07
3.54646218e-09
6.4898745e-07
3.44608625e-09
6.48634013e-07
3.323846e-09
6.48288074e-07
3.17940525e-09
6.47953218e-07
3.01263147e-09
6.47633178e-07
2.82359368e-09
6.47331808e-07
2.61255248e-09
6.47053052e-07
2.37995643e-09
6.46800881e-07
2.1264319e-09
6.46579284e-07
1.8527694e-09
6.46392222e-07
1.5599182e-09
6.46243548e-07
1.24899414e-09
6.46136924e-07
9.21352521e-10
6.46076744e-07
5.777937e-10
6.46069024e-07
2.19016844e-10
6.46115625e-07
-1.50179093e-10
6.46218922e-07
-5.28107965e-10
6.46382336e-07
-9.13943157e-10
6.46607996e-07
-1.30593517e-09
6.46897555e-07
-1.70160536e-09
6.47251851e-07
-2.09812291e-09
6.47671072e-07
-2.49252462e-09
6.48154771e-07
-2.88158641e-09
6.4870178e-07
-3.26187081e-09
6.49310179e-07
-3.62981395e-09
6.49977288e-07
-3.98178126e-09
6.50699688e-07
-4.31414977e-09
6.51473249e-07
-4.62340203e-09
6.52293183e-07
-4.90621698e-09
6.53154104e-07
-5.15957455e-09
6.54050105e-07
-5.38084935e-09
6.54974846e-07
-5.56788288e-09
6.55921661e-07
-5.71905484e-09
6.56883674e-07
-5.83332716e-09
6.57853927e-07
-5.9102575e-09
6.58825512e-07
-5.95001057e-09
6.59791696e-07
-5.95333389e-09
6.60746044e-07
-5.92152738e-09
6.61682523e-07
-5.85637987e-09
6.62595589e-07
-5.76011945e-09
6.63480258e-07
-5.63532382e-09
6.64332154e-07
-5.4848513e-09
6.65147536e-07
-5.31175258e-09
6.65923313e-07
-5.11919537e-09
6.66657035e-07
-4.91037847e-09
6.67346872e-07
-4.68847008e-09
6.67991577e-07
-4.45654517e-09
6.68590449e-07
-4.21752537e-09
6.69143276e-07
-3.97414219e-09
6.69650289e-07
-3.72890131e-09
6.701121e-07
-3.48403607e-09
6.7052968e-07
-3.24147007e-09
6.70904334e-07
-3.00281451e-09
6.71237693e-07
-2.76940821e-09
6.71531656e-07
-2.54238426e-09
6.71788301e-07
-2.32270559e-09
6.72009923e-07
-2.11116077e-09
6.72198663e-07
-1.90838577e-09
6.72356618e-07
-1.71480502e-09
6.72485968e-07
-1.53065416e-09
6.72588892e-07
-1.3560652e-09
6.72667573e-07
-1.1911047e-09
6.72724255e-07
-1.035814e-09
6.72760981e-07
-8.89851117e-10
6.72779657e-07
-7.52901089e-10
6.72782144e-07
-6.24713231e-10
6.72770243e-07
-5.04994713e-10
6.72745695e-07
-3.93453216e-10
6.72710162e-07
-2.89849902e-10
6.72664986e-07
-1.93865261e-10
6.72610887e-07
-1.0504113e-10
6.72547683e-07
-2.27907363e-11
6.72477815e-07
4.94499029e-11
6.72403688e-07
1.1421492e-10
6.72324723e-07
1.71758947e-10
6.72240596e-07
2.22180234e-10
6.72151799e-07
2.6639178e-10
6.72058971e-07
3.05203661e-10
6.71962745e-07
3.39197923e-10
6.71863726e-07
3.68829141e-10
6.71762493e-07
3.94504269e-10
6.71659597e-07
4.16617481e-10
6.71555537e-07
4.35529934e-10
6.71450767e-07
4.51553975e-10
6.71345695e-07
4.64961125e-10
6.71240689e-07
4.75989442e-10
6.71136075e-07
4.84846573e-10
6.71032142e-07
4.91714656e-10
6.70929144e-07
4.96756526e-10
6.708273e-07
5.00121566e-10
6.70726798e-07
5.01948843e-10
6.70627801e-07
5.02368511e-10
6.70530447e-07
5.01504049e-10
6.70434854e-07
4.99472205e-10
6.70341121e-07
4.96383446e-10
6.70249334e-07
4.92340751e-10
6.70159569e-07
4.87440605e-10
6.70071887e-07
4.81771425e-10
6.69986343e-07
4.7541428e-10
6.69902985e-07
4.68442359e-10
6.69821852e-07
4.60921653e-10
6.69742976e-07
4.52910534e-10
6.69666385e-07
4.44461044e-10
6.69592097e-07
4.35619547e-10
6.6952013e-07
4.264268e-10
6.69450491e-07
4.16919423e-10
6.69383188e-07
4.07130594e-10
6.69318222e-07
3.97090027e-10
6.69255591e-07
3.86825105e-10
6.69195294e-07
3.76361148e-10
6.69137327e-07
3.65720974e-10
6.69081684e-07
3.54925559e-10
6.69028363e-07
3.43993508e-10
6.68977358e-07
3.32941162e-10
6.68928668e-07
3.21781575e-10
6.68882293e-07
3.10524819e-10
6.68838233e-07
2.99175918e-10
6.68796491e-07
2.87739855e-10
6.68757073e-07
2.76190296e-10
6.68719949e-07
2.64617261e-10
6.68685174e-07
2.52528282e-10
6.6865213e-07
2.42176721e-10
2.23223343e-10
6.66649987e-07
9.26959393e-11
6.6658082e-07
3.93390696e-10
6.66428197e-07
8.21750703e-10
6.6617392e-07
1.32483409e-09
6.65816373e-07
1.83410592e-09
6.65365754e-07
2.29240879e-09
6.64840144e-07
2.65719246e-09
6.64263028e-07
2.89915471e-09
6.63660737e-07
3.00376765e-09
6.63059639e-07
2.97227739e-09
6.62484065e-07
2.81753599e-09
6.61955561e-07
2.55683396e-09
6.61492758e-07
2.20875064e-09
6.61110368e-07
1.79755203e-09
6.60816527e-07
1.3607851e-09
6.60609312e-07
9.51882313e-10
6.60474293e-07
6.32961635e-10
6.60384637e-07
4.59943753e-10
6.6030498e-07
4.665708e-10
6.60198751e-07
6.54083834e-10
6.60035787e-07
9.91291252e-10
6.59797448e-07
1.42368601e-09
6.59478039e-07
1.88640462e-09
6.59083425e-07
2.31663483e-09
6.58628773e-07
2.66279398e-09
6.58135777e-07
2.8894531e-09
6.57629542e-07
2.97811822e-09
6.57135837e-07
2.92526798e-09
6.5667907e-07
2.73945161e-09
6.56280835e-07
2.43880595e-09
6.55958665e-07
2.04983567e-09
6.55724651e-07
1.60741072e-09
6.55583859e-07
1.15484125e-09
6.55532588e-07
7.42184102e-10
6.55557651e-07
4.21557776e-10
6.55636704e-07
2.39659886e-10
6.55739724e-07
2.2812915e-10
6.55834755e-07
3.92841573e-10
6.55893918e-07
7.10274027e-10
6.55897636e-07
1.13171204e-09
6.55837573e-07
1.59320295e-09
6.5571733e-07
2.02983345e-09
6.55550353e-07
2.39057272e-09
6.55355532e-07
2.64887146e-09
6.55151885e-07
2.8055936e-09
6.54954001e-07
2.88378728e-09
6.54769534e-07
2.91782601e-09
6.54599157e-07
2.94131934e-09
6.5443846e-07
2.97809838e-09
6.54280705e-07
3.03870366e-09
6.54119274e-07
3.12219824e-09
6.53949127e-07
3.22109363e-09
6.5376714e-07
3.32656122e-09
6.53571657e-07
3.43186634e-09
6.53361804e-07
3.53339701e-09
6.53136937e-07
3.62989732e-09
6.52896412e-07
3.72103448e-09
6.52639616e-07
3.80623954e-09
6.52366132e-07
3.88421369e-09
6.52075887e-07
3.9530069e-09
6.51769235e-07
4.01035383e-09
6.51446978e-07
4.05398769e-09
6.51110339e-07
4.08180851e-09
6.50760932e-07
4.09192309e-09
6.50400734e-07
4.08262247e-09
6.5003206e-07
4.05236252e-09
6.49657544e-07
3.99976827e-09
6.49280107e-07
3.92364683e-09
6.48902928e-07
3.82301668e-09
6.48529408e-07
3.69712349e-09
6.48163139e-07
3.54544067e-09
6.47807873e-07
3.36767394e-09
6.47467502e-07
3.1637548e-09
6.47146035e-07
2.93382643e-09
6.46847575e-07
2.67823969e-09
6.4657631e-07
2.39754234e-09
6.4633648e-07
2.09246677e-09
6.46132356e-07
1.763936e-09
6.45968209e-07
1.41306391e-09
6.45848361e-07
1.04115544e-09
6.45776406e-07
6.49740027e-10
6.45753424e-07
2.42016173e-10
6.4578544e-07
-1.82102792e-10
6.45877155e-07
-6.19721473e-10
6.46031533e-07
-1.06817602e-09
6.46250696e-07
-1.52490808e-09
6.46536309e-07
-1.9869886e-09
6.46889601e-07
-2.45114359e-09
6.47311112e-07
-2.91372132e-09
6.47800641e-07
-3.37075494e-09
6.48357205e-07
-3.81803198e-09
6.4897901e-07
-4.25117194e-09
6.49663418e-07
-4.66570012e-09
6.50406951e-07
-5.05715249e-09
6.51205307e-07
-5.42119088e-09
6.52053409e-07
-5.75371535e-09
6.52945462e-07
-6.05099373e-09
6.53875054e-07
-6.30977871e-09
6.54835258e-07
-6.52740072e-09
6.55818768e-07
-6.7018595e-09
6.56818042e-07
-6.83188233e-09
6.57825456e-07
-6.91694388e-09
6.58833458e-07
-6.95728041e-09
6.59834713e-07
-6.95385867e-09
6.60822245e-07
-6.9083348e-09
6.6178955e-07
-6.82297183e-09
6.62730701e-07
-6.70057193e-09
6.63640416e-07
-6.5443611e-09
6.64514118e-07
-6.35789806e-09
6.65347956e-07
-6.1449614e-09
6.66138814e-07
-5.90945303e-09
6.66884295e-07
-5.65529097e-09
6.67582693e-07
-5.38633216e-09
6.68232947e-07
-5.1062959e-09
6.68834582e-07
-4.8186922e-09
6.69387653e-07
-4.52677898e-09
6.69892673e-07
-4.23352151e-09
6.70350559e-07
-3.94155534e-09
6.70762597e-07
-3.65317297e-09
6.7113041e-07
-3.37032461e-09
6.71455914e-07
-3.09463844e-09
6.71741237e-07
-2.82746172e-09
6.71988634e-07
-2.56988529e-09
6.72200427e-07
-2.32276088e-09
6.72378938e-07
-2.08672835e-09
6.72526507e-07
-1.86222907e-09
6.72645483e-07
-1.64950945e-09
6.72738175e-07
-1.44865891e-09
6.72806793e-07
-1.25964446e-09
6.72853354e-07
-1.08231677e-09
6.72879924e-07
-9.16387491e-10
6.72888549e-07
-7.61521838e-10
6.72881165e-07
-6.17355793e-10
6.72859574e-07
-4.83464379e-10
6.72825261e-07
-3.59232979e-10
6.72779598e-07
-2.44328614e-10
6.72724961e-07
-1.39434437e-10
6.72664209e-07
-4.45433048e-11
6.72598687e-07
4.24609156e-11
6.72526176e-07
1.21723251e-10
6.72447751e-07
1.92426723e-10
6.72363948e-07
2.55352291e-10
6.72275054e-07
3.10866572e-10
6.72181685e-07
3.59555438e-10
6.72084566e-07
4.02118549e-10
6.71984375e-07
4.39186088e-10
6.71881715e-07
4.71287124e-10
6.7177714e-07
4.98880466e-10
6.71671171e-07
5.22389769e-10
6.71564303e-07
5.4220569e-10
6.7145699e-07
5.58678428e-10
6.71349647e-07
5.72122261e-10
6.71242639e-07
5.82821766e-10
6.71136284e-07
5.91033926e-10
6.71030849e-07
5.96989027e-10
6.7092656e-07
6.00893092e-10
6.70823604e-07
6.02932384e-10
6.70722138e-07
6.03276197e-10
6.70622296e-07
6.02078493e-10
6.70524193e-07
5.99481417e-10
6.70427927e-07
5.95616512e-10
6.70333589e-07
5.90606399e-10
6.70241254e-07
5.84564205e-10
6.70150993e-07
5.77595413e-10
6.70062865e-07
5.69796554e-10
6.69976925e-07
5.61256492e-10
6.69893218e-07
5.52055994e-10
6.69811781e-07
5.4226855e-10
6.69732646e-07
5.31959768e-10
6.69655837e-07
5.21188723e-10
6.69581371e-07
5.10008473e-10
6.69509258e-07
4.98465863e-10
6.69439505e-07
4.86602948e-10
6.69372112e-07
4.74457529e-10
6.69307076e-07
4.62062928e-10
6.69244393e-07
4.49449188e-10
6.69184055e-07
4.36643378e-10
6.69126054e-07
4.23669135e-10
6.69070383e-07
4.10547568e-10
6.69017033e-07
3.97296817e-10
6.68965999e-07
3.83932397e-10
6.68917274e-07
3.70466259e-10
6.68870854e-07
3.56907402e-10
6.68826735e-07
3.4325989e-10
6.68784914e-07
3.29528806e-10
6.68745391e-07
3.15684543e-10
6.68708148e-07
3.01830551e-10
6.68673276e-07
2.87382651e-10
6.68640511e-07
2.74885177e-10
2.52148764e-10
6.66657883e-07
1.01591999e-10
6.66598957e-07
4.52481125e-10
6.66456025e-07
9.6495749e-10
6.66207637e-07
1.57356186e-09
6.65849876e-07
2.19224252e-09
6.65392197e-07
2.75050636e-09
6.64853035e-07
3.19682178e-09
6.64257065e-07
3.49562363e-09
6.63632567e-07
3.6287797e-09
6.63008442e-07
3.59692448e-09
6.62411827e-07
3.41468039e-09
6.61866937e-07
3.1022613e-09
6.61394429e-07
2.68180205e-09
6.61009906e-07
2.18261985e-09
6.6072108e-07
1.65014592e-09
6.60524587e-07
1.14889034e-09
6.60404169e-07
7.53866238e-10
6.6033186e-07
5.3271219e-10
6.6027246e-07
5.26412578e-10
6.60188885e-07
7.38093218e-10
6.6004778e-07
1.13282103e-09
6.59825357e-07
1.64650737e-09
6.5951153e-07
2.20058705e-09
6.59110613e-07
2.71786458e-09
6.58638906e-07
3.13477725e-09
6.58120906e-07
3.40770286e-09
6.57585368e-07
3.51388746e-09
6.57061973e-07
3.4488841e-09
6.56578898e-07
3.22274189e-09
6.56161106e-07
2.85680883e-09
6.55828896e-07
2.38225358e-09
6.55596292e-07
1.84022069e-09
6.55469089e-07
1.28225479e-09
6.55442675e-07
7.68822834e-10
6.55500609e-07
3.63869777e-10
6.55616583e-07
1.23958822e-10
6.55759064e-07
8.59238773e-11
6.5589495e-07
2.57226245e-10
6.55991741e-07
6.13741895e-10
6.56025608e-07
1.09810027e-09
6.5598608e-07
1.63298948e-09
6.55877035e-07
2.13914532e-09
6.55713863e-07
2.55402473e-09
6.55518146e-07
2.84488362e-09
6.55311564e-07
3.01248709e-09
6.55110773e-07
3.08490378e-09
6.54924619e-07
3.10432073e-09
6.54754082e-07
3.11221029e-09
6.54594386e-07
3.13816052e-09
6.54438045e-07
3.19542184e-09
6.54277604e-07
3.28302705e-09
6.54107284e-07
3.39181072e-09
6.53923399e-07
3.51085192e-09
6.5372391e-07
3.63176816e-09
6.53507683e-07
3.75004461e-09
6.53273885e-07
3.86412151e-09
6.53021723e-07
3.9736264e-09
6.52750473e-07
4.07792325e-09
6.52459642e-07
4.17548024e-09
6.52149133e-07
4.26395153e-09
6.51819336e-07
4.34058581e-09
6.51471141e-07
4.40261517e-09
6.51105911e-07
4.44746659e-09
6.50725442e-07
4.47281384e-09
6.50331928e-07
4.47655026e-09
6.49927931e-07
4.45676334e-09
6.49516353e-07
4.41173744e-09
6.49100409e-07
4.33996799e-09
6.48683592e-07
4.24019402e-09
6.48269642e-07
4.11141591e-09
6.47862508e-07
3.95289602e-09
6.47466317e-07
3.76416453e-09
6.47085336e-07
3.54501285e-09
6.46723936e-07
3.29547884e-09
6.4638656e-07
3.0158419e-09
6.4607769e-07
2.70661119e-09
6.45801815e-07
2.36851242e-09
6.45563402e-07
2.00248916e-09
6.45366869e-07
1.60970402e-09
6.45216562e-07
1.1915345e-09
6.45116794e-07
7.49544461e-10
6.45073381e-07
2.85436712e-10
6.45089275e-07
-1.98047982e-10
6.45167966e-07
-6.98488992e-10
6.45312815e-07
-1.21314142e-09
6.45526797e-07
-1.73904733e-09
6.4581227e-07
-2.27265694e-09
6.46170871e-07
-2.80997702e-09
6.46603512e-07
-3.34663272e-09
6.47110312e-07
-3.87786307e-09
6.47690509e-07
-4.39857316e-09
6.48342389e-07
-4.90343147e-09
6.49063246e-07
-5.38697009e-09
6.49849367e-07
-5.84371844e-09
6.50696051e-07
-6.26834921e-09
6.51597655e-07
-6.65582201e-09
6.52547681e-07
-7.00154566e-09
6.53538879e-07
-7.30152522e-09
6.54563391e-07
-7.55248003e-09
6.55612909e-07
-7.75195937e-09
6.5667885e-07
-7.89841779e-09
6.57752547e-07
-7.99124301e-09
6.58825434e-07
-8.03077322e-09
6.59889225e-07
-8.0182575e-09
6.60936086e-07
-7.95579996e-09
6.61958768e-07
-7.84625289e-09
6.62950731e-07
-7.69312423e-09
6.63906222e-07
-7.50042963e-09
6.64820333e-07
-7.27257254e-09
6.65689027e-07
-7.01420076e-09
6.6650913e-07
-6.73008353e-09
6.67278312e-07
-6.4249794e-09
6.67995036e-07
-6.10354071e-09
6.686585e-07
-5.77022198e-09
6.69268566e-07
-5.42919677e-09
6.69825683e-07
-5.08431043e-09
6.70330809e-07
-4.73903821e-09
6.70785338e-07
-4.39645122e-09
6.71191033e-07
-4.05921159e-09
6.71549964e-07
-3.72957644e-09
6.71864443e-07
-3.40941544e-09
6.72136955e-07
-3.10024975e-09
6.72370094e-07
-2.8032786e-09
6.72566509e-07
-2.51941028e-09
6.72728853e-07
-2.24928804e-09
6.72859748e-07
-1.99331953e-09
6.7296176e-07
-1.75169966e-09
6.73037382e-07
-1.5244415e-09
6.73089004e-07
-1.31141113e-09
6.73118909e-07
-1.11235041e-09
6.73129296e-07
-9.26888218e-10
6.73122252e-07
-7.54575539e-10
6.73099735e-07
-5.9492129e-10
6.73063634e-07
-4.47431005e-10
6.73015986e-07
-3.11635812e-10
6.72958803e-07
-1.87162633e-10
6.7289282e-07
-7.34124986e-11
6.7281808e-07
3.02915497e-11
6.72736309e-07
1.2435225e-10
6.72649032e-07
2.09112756e-10
6.725568e-07
2.84767569e-10
6.72460345e-07
3.51914627e-10
6.7236016e-07
4.11156916e-10
6.72256727e-07
4.63092697e-10
6.7215059e-07
5.08358034e-10
6.72042307e-07
5.475696e-10
6.71932406e-07
5.81288279e-10
6.71821366e-07
6.1001917e-10
6.71709624e-07
6.34228967e-10
6.71597574e-07
6.5435107e-10
6.71485565e-07
6.70779367e-10
6.71373911e-07
6.8386497e-10
6.71262898e-07
6.9391956e-10
6.71152789e-07
7.01222624e-10
6.71043825e-07
7.06027231e-10
6.70936225e-07
7.08563764e-10
6.7083018e-07
7.09044258e-10
6.70725855e-07
7.07664351e-10
6.7062339e-07
7.04603678e-10
6.70522901e-07
7.00028127e-10
6.70424484e-07
6.94089924e-10
6.70328215e-07
6.86929218e-10
6.70234158e-07
6.78673648e-10
6.70142363e-07
6.69440887e-10
6.70052872e-07
6.59337435e-10
6.69965715e-07
6.48460414e-10
6.6988092e-07
6.36897402e-10
6.69798505e-07
6.24727681e-10
6.69718486e-07
6.12021767e-10
6.69640872e-07
5.98843059e-10
6.69565671e-07
5.85248474e-10
6.69492886e-07
5.71288203e-10
6.69422518e-07
5.57007313e-10
6.69354563e-07
5.42446322e-10
6.69289018e-07
5.27640878e-10
6.69225875e-07
5.12623075e-10
6.69165126e-07
4.97421736e-10
6.69106762e-07
4.82061834e-10
6.69050771e-07
4.66565491e-10
6.68997142e-07
4.50951472e-10
6.68945863e-07
4.35235613e-10
6.68896923e-07
4.19429857e-10
6.6885031e-07
4.03543158e-10
6.68806011e-07
3.87579495e-10
6.68764014e-07
3.71545584e-10
6.68724308e-07
3.55410218e-10
6.68686847e-07
3.39306079e-10
6.68651673e-07
3.22579612e-10
6.68618222e-07
3.08312096e-10
2.82499533e-10
6.66655848e-07
1.12306539e-10
6.66595753e-07
5.12528693e-10
6.66451282e-07
1.10938586e-09
6.66200897e-07
1.82387247e-09
6.65840766e-07
2.55224129e-09
6.65380344e-07
3.21076153e-09
6.6483796e-07
3.73903089e-09
6.64238079e-07
4.09532134e-09
6.63608729e-07
4.2579361e-09
6.62978568e-07
4.22688642e-09
6.62374507e-07
4.01854124e-09
6.61820602e-07
3.65596492e-09
6.61337511e-07
3.16468413e-09
6.60941352e-07
2.57855863e-09
6.60641053e-07
1.95021176e-09
6.60435057e-07
1.35464184e-09
6.60308249e-07
8.80428211e-10
6.60232541e-07
6.08180881e-10
6.60170594e-07
5.88133279e-10
6.6008334e-07
8.25137714e-10
6.59937898e-07
1.27807719e-09
6.59712381e-07
1.87186528e-09
6.59397884e-07
2.51494937e-09
6.58998411e-07
3.11722075e-09
6.5852912e-07
3.60396128e-09
6.58013287e-07
3.92343156e-09
6.57478803e-07
4.04826535e-09
6.56954981e-07
3.97259567e-09
6.56470069e-07
3.70753892e-09
6.56049386e-07
3.27737106e-09
6.55713703e-07
2.71781054e-09
6.55477483e-07
2.07630446e-09
6.55347032e-07
1.41255047e-09
6.55319287e-07
7.9637805e-10
6.55381657e-07
3.01269999e-10
6.55511313e-07
-6.05325085e-12
6.55670963e-07
-7.39776856e-11
6.55824152e-07
1.03730694e-10
6.55936832e-07
5.00779388e-10
6.55987122e-07
1.04753353e-09
6.55965032e-07
1.65480331e-09
6.55873804e-07
2.23009444e-09
6.55727842e-07
2.69969598e-09
6.55548122e-07
3.02429759e-09
6.5535621e-07
3.20407394e-09
6.55168995e-07
3.27177498e-09
6.54995652e-07
3.27730074e-09
6.5483738e-07
3.27010079e-09
6.54689398e-07
3.28574585e-09
6.54543992e-07
3.34041514e-09
6.54393345e-07
3.43324859e-09
6.54231274e-07
3.55344591e-09
6.54053713e-07
3.6879683e-09
6.53858298e-07
3.82673047e-09
6.53643626e-07
3.96425784e-09
6.53408648e-07
4.09863822e-09
6.53152393e-07
4.22941714e-09
6.52874003e-07
4.35584859e-09
6.52572901e-07
4.47611897e-09
6.52248961e-07
4.58743103e-09
6.51902603e-07
4.68648783e-09
6.51534809e-07
4.76996003e-09
6.51147091e-07
4.83474336e-09
6.5074145e-07
4.87802409e-09
6.50320332e-07
4.89724868e-09
6.49886595e-07
4.89009444e-09
6.49443469e-07
4.85447368e-09
6.48994511e-07
4.78855253e-09
6.48543561e-07
4.69078971e-09
6.48094687e-07
4.55995596e-09
6.4765214e-07
4.39513073e-09
6.47220313e-07
4.19570102e-09
6.46803713e-07
3.96134554e-09
6.46406937e-07
3.69201106e-09
6.46034656e-07
3.38790352e-09
6.45691597e-07
3.04947512e-09
6.45382529e-07
2.67741159e-09
6.45112241e-07
2.27263546e-09
6.44885524e-07
1.83630767e-09
6.44707122e-07
1.36985285e-09
6.44581612e-07
8.75001878e-10
6.44512778e-07
3.54244027e-10
6.44505686e-07
-1.90940739e-10
6.44564813e-07
-7.57575907e-10
6.44694128e-07
-1.34238444e-09
6.44896969e-07
-1.94178642e-09
6.45176144e-07
-2.5517004e-09
6.4553384e-07
-3.16751484e-09
6.45971468e-07
-3.78407439e-09
6.46489547e-07
-4.39573037e-09
6.47087615e-07
-4.99640588e-09
6.47764141e-07
-5.57969928e-09
6.48516454e-07
-6.139004e-09
6.49340708e-07
-6.66767302e-09
6.50231877e-07
-7.15920128e-09
6.51183798e-07
-7.60740983e-09
6.52189255e-07
-8.00665413e-09
6.53240107e-07
-8.35201541e-09
6.54327457e-07
-8.63945727e-09
6.55441857e-07
-8.86597569e-09
6.56573528e-07
-9.02969714e-09
6.57712599e-07
-9.12991589e-09
6.58849341e-07
-9.16711224e-09
6.59974389e-07
-9.1428994e-09
6.61078943e-07
-9.05994635e-09
6.62154936e-07
-8.92183833e-09
6.63195168e-07
-8.73295126e-09
6.64193403e-07
-8.49826206e-09
6.65144419e-07
-8.22319173e-09
6.66044032e-07
-7.91342358e-09
6.66889079e-07
-7.57474799e-09
6.67677374e-07
-7.21290038e-09
6.68407641e-07
-6.83344468e-09
6.69079437e-07
-6.44166505e-09
6.69693052e-07
-6.04247109e-09
6.70249416e-07
-5.64034666e-09
6.70750001e-07
-5.23930754e-09
6.71196722e-07
-4.84287092e-09
6.71591858e-07
-4.45405964e-09
6.71937968e-07
-4.07541306e-09
6.7223782e-07
-3.70900695e-09
6.72494312e-07
-3.35649612e-09
6.72710414e-07
-3.01914743e-09
6.72889103e-07
-2.69788113e-09
6.73033326e-07
-2.39330495e-09
6.73145956e-07
-2.10575675e-09
6.73229776e-07
-1.83533965e-09
6.7328746e-07
-1.58195634e-09
6.73321554e-07
-1.34534865e-09
6.73334478e-07
-1.12512833e-09
6.73328529e-07
-9.20802038e-10
6.73305882e-07
-7.31800107e-10
6.73268571e-07
-5.57487331e-10
6.7321841e-07
-3.97152363e-10
6.73156886e-07
-2.500004e-10
6.73085141e-07
-1.15327084e-10
6.73004316e-07
7.48005855e-12
6.72917586e-07
1.17024634e-10
6.72825194e-07
2.16725953e-10
6.72728015e-07
3.06267858e-10
6.72626614e-07
3.86143061e-10
6.72521552e-07
4.56950855e-10
6.72413371e-07
5.19310328e-10
6.72302588e-07
5.7384871e-10
6.72189709e-07
6.2120938e-10
6.7207523e-07
6.62020087e-10
6.71959622e-07
6.96867922e-10
6.71843321e-07
7.26290241e-10
6.7172674e-07
7.50779845e-10
6.7161027e-07
7.70791389e-10
6.71494274e-07
7.86745964e-10
6.71379077e-07
7.99032641e-10
6.71264962e-07
8.080081e-10
6.71152162e-07
8.1399711e-10
6.71040872e-07
8.17292724e-10
6.70931255e-07
8.18157652e-10
6.70823448e-07
8.1682956e-10
6.70717566e-07
8.13524506e-10
6.7061371e-07
8.08438335e-10
6.70511966e-07
8.01750442e-10
6.7041241e-07
7.93624868e-10
6.70315105e-07
7.84212498e-10
6.70220106e-07
7.73650523e-10
6.7012746e-07
7.62065294e-10
6.70037204e-07
7.49571078e-10
6.69949371e-07
7.36272281e-10
6.69863983e-07
7.2226333e-10
6.69781059e-07
7.07630062e-10
6.69700611e-07
6.92449096e-10
6.69622644e-07
6.76789579e-10
6.69547159e-07
6.60713738e-10
6.69474151e-07
6.44276423e-10
6.69403613e-07
6.27526714e-10
6.69335533e-07
6.1050839e-10
6.69269896e-07
5.93259455e-10
6.69206688e-07
5.7581358e-10
6.69145893e-07
5.58200463e-10
6.69087493e-07
5.40445289e-10
6.69031472e-07
5.22569998e-10
6.68977815e-07
5.0459289e-10
6.68926506e-07
4.86529286e-10
6.6887753e-07
4.68390643e-10
6.68830873e-07
4.5018572e-10
6.6878652e-07
4.31918706e-10
6.68744454e-07
4.13597627e-10
6.68704661e-07
3.95189754e-10
6.6866711e-07
3.76841971e-10
6.68631874e-07
3.57809646e-10
6.68598657e-07
3.41479064e-10
3.11914805e-10
6.66656372e-07
1.22611836e-10
6.66596666e-07
5.72228846e-10
6.66452415e-07
1.25366605e-09
6.6620118e-07
2.07513937e-09
6.65838073e-07
2.91536194e-09
6.65371646e-07
3.67720217e-09
6.64819824e-07
4.29088303e-09
6.64207379e-07
4.70780483e-09
6.63563314e-07
4.90203642e-09
6.62917703e-07
4.87252892e-09
6.62299056e-07
4.63721638e-09
6.61733044e-07
4.22200341e-09
6.61241819e-07
3.65593509e-09
6.60842534e-07
2.97787585e-09
6.60544133e-07
2.24865544e-09
6.60343573e-07
1.55526033e-09
6.60224043e-07
1.00003186e-09
6.60155966e-07
6.76338873e-10
6.60102066e-07
6.42111344e-10
6.60022799e-07
9.04466841e-10