/*--------------------------------*- C++ -*----------------------------------*\
| =========                 |                                                 |
| \\      /  F ield         | OpenFOAM: The Open Source CFD Toolbox           |
|  \\    /   O peration     | Version:  v2012                                 |
|   \\  /    A nd           | Website:  www.openfoam.com                      |
|    \\/     M anipulation  |                                                 |
\*---------------------------------------------------------------------------*/
FoamFile
{
    version     2.0;
    format      ascii;
    class       volScalarField;
    location    "2.49";
    object      rAU;
}
// * * * * * * * * * * * * * * * * * * * * * * * * * * * * * * * * * * * * * //

dimensions      [0 0 1 0 0 0 0];


internalField   nonuniform List<scalar> 
28416
(
0.000370454006
0.000370457241
0.000370456314
0.0003704555
0.000370454997
0.000370454965
0.000370455499
0.000370456635
0.000370458346
0.000370460544
0.000370463099
0.000370465874
0.000370468734
0.000370471536
0.00037047411
0.00037047627
0.00037047784
0.00037047872
0.000370478921
0.000370478572
0.000370477874
0.000370477069
0.000370476397
0.000370476065
0.000370476214
0.000370476909
0.000370478154
0.000370479896
0.000370482038
0.000370484444
0.000370486953
0.000370489379
0.000370491515
0.000370493197
0.000370494265
0.000370494606
0.000370494196
0.000370493111
0.000370491523
0.000370489676
0.000370487839
0.00037048625
0.000370485065
0.000370484337
0.00037048402
0.000370483998
0.000370484134
0.000370484309
0.000370484451
0.000370484537
0.000370484583
0.000370484627
0.000370484704
0.000370484842
0.000370485056
0.000370485356
0.000370485745
0.00037048623
0.000370486817
0.000370487516
0.000370488333
0.000370489277
0.000370490351
0.000370491557
0.000370492897
0.000370494368
0.000370495968
0.000370497692
0.000370499532
0.00037050148
0.000370503525
0.000370505654
0.000370507855
0.00037051011
0.000370512402
0.000370514712
0.00037051702
0.000370519305
0.000370521548
0.000370523731
0.000370525835
0.000370527848
0.000370528975
0.000370527646
0.000370526095
0.000370524323
0.000370522333
0.000370520131
0.000370517723
0.000370515119
0.000370512331
0.000370509374
0.000370506265
0.000370503024
0.000370499672
0.000370496232
0.000370492728
0.000370489185
0.000370485629
0.000370482082
0.000370478569
0.000370475113
0.000370471734
0.000370468453
0.000370465286
0.00037046225
0.000370459357
0.000370456617
0.00037045404
0.00037045163
0.000370449392
0.000370447326
0.000370445432
0.00037044371
0.000370442154
0.00037044076
0.000370439524
0.000370438439
0.000370437498
0.000370436698
0.000370436029
0.000370435485
0.000370435055
0.000370434732
0.000370434508
0.000370434373
0.00037043432
0.000370434341
0.000370434428
0.000370434575
0.000370434774
0.00037043502
0.000370435308
0.000370435632
0.000370435985
0.000370436364
0.00037043676
0.000370437165
0.000370437571
0.000370437969
0.000370438218
0.000370438212
0.000370438176
0.000370438197
0.000370438269
0.000370438383
0.000370438533
0.000370438715
0.000370438926
0.000370439159
0.000370439411
0.00037043968
0.000370439962
0.000370440255
0.000370440558
0.000370440868
0.000370441184
0.000370441506
0.00037044183
0.000370442157
0.000370442486
0.000370442815
0.000370443144
0.000370443472
0.000370443797
0.00037044412
0.000370444438
0.000370444753
0.000370445064
0.000370445369
0.000370445669
0.000370445963
0.000370446251
0.000370446533
0.000370446809
0.000370447078
0.000370447341
0.000370447596
0.000370447845
0.000370448086
0.000370448321
0.000370448548
0.000370448767
0.00037044898
0.000370449184
0.00037044938
0.000370449569
0.000370449751
0.000370449916
0.000370454208
0.000370450987
0.000370454405
0.000370453694
0.000370453157
0.000370452986
0.000370453305
0.000370454166
0.000370455566
0.000370457447
0.000370459708
0.000370462219
0.000370464854
0.000370467487
0.000370469994
0.000370472241
0.000370474085
0.000370475406
0.000370476145
0.000370476335
0.000370476105
0.000370475653
0.000370475208
0.000370474981
0.000370475136
0.000370475766
0.000370476888
0.000370478459
0.000370480391
0.000370482571
0.000370484863
0.000370487126
0.000370489211
0.000370490973
0.000370492279
0.000370493035
0.000370493191
0.000370492769
0.000370491872
0.000370490675
0.000370489394
0.000370488244
0.000370487395
0.000370486938
0.000370486871
0.00037048712
0.000370487565
0.000370488082
0.000370488576
0.000370489
0.000370489351
0.000370489657
0.000370489956
0.000370490282
0.000370490659
0.000370491098
0.000370491606
0.000370492184
0.000370492837
0.000370493571
0.00037049439
0.000370495301
0.000370496308
0.000370497411
0.000370498612
0.000370499908
0.000370501296
0.000370502772
0.000370504329
0.000370505957
0.00037050765
0.000370509395
0.000370511178
0.00037051299
0.000370514812
0.000370516631
0.000370518429
0.000370520191
0.000370521897
0.000370523532
0.000370525076
0.00037052651
0.000370527814
0.000370528042
0.000370526531
0.000370524789
0.000370522813
0.000370520601
0.00037051816
0.000370515495
0.000370512619
0.000370509545
0.00037050629
0.000370502873
0.000370499317
0.000370495648
0.000370491891
0.000370488073
0.000370484225
0.000370480374
0.000370476547
0.000370472775
0.000370469081
0.00037046549
0.000370462024
0.000370458703
0.000370455542
0.000370452556
0.000370449754
0.000370447145
0.000370444732
0.000370442519
0.000370440505
0.000370438686
0.000370437059
0.000370435618
0.000370434355
0.000370433263
0.000370432331
0.000370431552
0.000370430918
0.000370430416
0.000370430039
0.000370429775
0.000370429616
0.000370429549
0.000370429566
0.00037042966
0.000370429822
0.000370430042
0.000370430315
0.000370430633
0.000370430989
0.000370431379
0.000370431795
0.000370432234
0.00037043269
0.000370433158
0.000370433633
0.000370434119
0.000370434423
0.000370434529
0.000370434605
0.000370434725
0.000370434883
0.000370435076
0.000370435298
0.000370435544
0.000370435813
0.0003704361
0.000370436403
0.000370436718
0.000370437045
0.000370437379
0.000370437719
0.000370438065
0.000370438413
0.000370438763
0.000370439114
0.000370439464
0.000370439813
0.00037044016
0.000370440505
0.000370440845
0.000370441182
0.000370441514
0.00037044184
0.000370442161
0.000370442477
0.000370442786
0.000370443087
0.000370443383
0.000370443672
0.000370443953
0.000370444227
0.000370444494
0.000370444753
0.000370445005
0.000370445248
0.000370445485
0.000370445713
0.000370445934
0.000370446146
0.000370446351
0.000370446548
0.000370446737
0.000370446918
0.000370447091
0.000370447258
0.000370447412
0.00037045168
0.000370450963
0.000370454232
0.000370453251
0.000370452368
0.000370451831
0.000370451807
0.000370452383
0.000370453579
0.000370455351
0.000370457603
0.000370460202
0.000370463009
0.000370465893
0.000370468714
0.00037047131
0.000370473498
0.000370475108
0.000370476037
0.000370476293
0.000370476001
0.00037047538
0.000370474691
0.000370474183
0.000370474059
0.000370474449
0.0003704754
0.000370476888
0.000370478834
0.000370481121
0.000370483607
0.000370486136
0.00037048854
0.000370490648
0.000370492294
0.000370493341
0.000370493703
0.000370493373
0.000370492446
0.000370491105
0.000370489592
0.000370488166
0.000370487043
0.000370486357
0.000370486134
0.000370486303
0.00037048673
0.000370487265
0.000370487787
0.000370488227
0.000370488572
0.000370488849
0.000370489102
0.000370489375
0.000370489696
0.000370490081
0.000370490538
0.00037049107
0.000370491681
0.000370492377
0.000370493165
0.000370494052
0.000370495044
0.000370496143
0.00037049735
0.000370498665
0.000370500084
0.000370501604
0.000370503218
0.000370504917
0.000370506695
0.000370508537
0.000370510433
0.000370512369
0.000370514331
0.000370516301
0.000370518265
0.000370520203
0.000370522097
0.000370523929
0.000370525677
0.000370527325
0.000370528856
0.00037052905
0.000370527378
0.000370525455
0.00037052328
0.000370520855
0.000370518187
0.000370515283
0.000370512157
0.000370508823
0.000370505302
0.000370501616
0.000370497788
0.000370493849
0.000370489826
0.000370485752
0.00037048166
0.00037047758
0.000370473545
0.000370469587
0.000370465732
0.000370462007
0.000370458435
0.000370455039
0.000370451832
0.000370448829
0.00037044604
0.00037044347
0.000370441121
0.000370438996
0.000370437089
0.000370435396
0.00037043391
0.000370432622
0.000370431522
0.0003704306
0.000370429843
0.000370429241
0.000370428783
0.000370428457
0.00037042825
0.000370428152
0.000370428152
0.000370428239
0.000370428402
0.000370428635
0.000370428926
0.000370429268
0.000370429656
0.00037043008
0.000370430536
0.000370431019
0.000370431521
0.000370432039
0.00037043257
0.000370433106
0.000370433637
0.000370434009
0.000370434066
0.000370434093
0.000370434168
0.000370434287
0.000370434446
0.00037043464
0.000370434865
0.000370435116
0.000370435389
0.000370435683
0.000370435993
0.000370436315
0.00037043665
0.000370436992
0.000370437341
0.000370437695
0.000370438052
0.00037043841
0.00037043877
0.000370439129
0.000370439487
0.000370439843
0.000370440196
0.000370440546
0.000370440892
0.000370441233
0.000370441569
0.000370441899
0.000370442223
0.000370442541
0.000370442852
0.000370443157
0.000370443455
0.000370443744
0.000370444027
0.000370444303
0.00037044457
0.00037044483
0.000370445083
0.000370445327
0.000370445564
0.000370445793
0.000370446014
0.000370446227
0.000370446433
0.00037044663
0.000370446819
0.000370447001
0.000370447177
0.000370447337
0.000370451615
0.000370450903
0.000370453956
0.000370452641
0.000370451362
0.000370450437
0.000370450084
0.000370450419
0.00037045148
0.000370453231
0.000370455567
0.000370458339
0.000370461389
0.000370464564
0.000370467706
0.000370470624
0.000370473102
0.00037047493
0.000370475968
0.000370476197
0.000370475738
0.000370474833
0.000370473798
0.000370472946
0.000370472535
0.000370472734
0.00037047361
0.000370475141
0.000370477236
0.000370479761
0.000370482549
0.000370485418
0.000370488172
0.000370490606
0.000370492522
0.000370493751
0.000370494187
0.00037049381
0.000370492714
0.000370491099
0.000370489256
0.000370487495
0.000370486086
0.000370485194
0.00037048486
0.000370485001
0.000370485459
0.000370486052
0.00037048663
0.000370487105
0.000370487457
0.000370487715
0.000370487934
0.000370488165
0.000370488445
0.000370488793
0.00037048922
0.000370489728
0.000370490322
0.00037049101
0.0003704918
0.000370492701
0.00037049372
0.00037049486
0.000370496124
0.000370497511
0.000370499018
0.000370500643
0.000370502378
0.000370504216
0.000370506147
0.000370508159
0.00037051024
0.000370512375
0.000370514548
0.000370516742
0.000370518941
0.000370521125
0.000370523274
0.00037052537
0.000370527392
0.000370529318
0.000370531123
0.000370531412
0.000370529574
0.000370527461
0.000370525074
0.000370522413
0.000370519485
0.000370516299
0.000370512869
0.000370509213
0.000370505353
0.000370501314
0.000370497124
0.000370492818
0.000370488429
0.000370483992
0.000370479547
0.000370475131
0.000370470778
0.000370466526
0.000370462407
0.00037045845
0.00037045468
0.000370451122
0.00037044779
0.0003704447
0.00037044186
0.000370439274
0.000370436944
0.000370434868
0.000370433038
0.000370431448
0.000370430086
0.000370428941
0.000370427999
0.000370427248
0.000370426671
0.000370426254
0.000370425985
0.000370425848
0.00037042583
0.000370425917
0.000370426099
0.000370426361
0.000370426694
0.000370427088
0.000370427534
0.000370428022
0.000370428547
0.0003704291
0.000370429675
0.000370430269
0.000370430873
0.000370431484
0.000370432096
0.000370432704
0.000370433196
0.00037043331
0.000370433319
0.000370433378
0.000370433482
0.000370433628
0.000370433811
0.000370434028
0.000370434274
0.000370434545
0.000370434837
0.000370435149
0.000370435476
0.000370435816
0.000370436166
0.000370436525
0.000370436891
0.000370437261
0.000370437635
0.00037043801
0.000370438386
0.000370438761
0.000370439135
0.000370439505
0.000370439873
0.000370440237
0.000370440596
0.00037044095
0.000370441299
0.000370441641
0.000370441978
0.000370442307
0.00037044263
0.000370442946
0.000370443254
0.000370443555
0.000370443848
0.000370444134
0.000370444411
0.000370444682
0.000370444944
0.000370445198
0.000370445444
0.000370445682
0.000370445912
0.000370446134
0.000370446349
0.000370446555
0.000370446753
0.000370446944
0.000370447128
0.000370447298
0.000370451592
0.000370450871
0.000370453752
0.000370452142
0.000370450493
0.000370449186
0.000370448487
0.000370448542
0.000370449413
0.000370451077
0.000370453433
0.000370456324
0.000370459585
0.000370463051
0.000370466543
0.000370469843
0.00037047269
0.000370474822
0.000370476053
0.000370476339
0.000370475802
0.000370474705
0.000370473396
0.000370472229
0.000370471511
0.000370471454
0.000370472158
0.000370473619
0.000370475754
0.000370478424
0.000370481452
0.000370484636
0.000370487756
0.000370490578
0.000370492864
0.000370494397
0.000370494997
0.000370494429
0.000370493509
0.000370491693
0.000370489569
0.000370487489
0.000370485771
0.000370484624
0.000370484113
0.000370484159
0.000370484586
0.000370485183
0.000370485771
0.00037048624
0.000370486562
0.000370486767
0.000370486916
0.000370487069
0.000370487271
0.000370487546
0.000370487904
0.000370488351
0.000370488892
0.000370489536
0.000370490293
0.000370491173
0.000370492185
0.000370493334
0.000370494624
0.000370496054
0.000370497623
0.000370499327
0.000370501159
0.000370503111
0.000370505173
0.000370507334
0.00037050958
0.000370511896
0.000370514265
0.000370516671
0.000370519095
0.000370521518
0.000370523919
0.000370526277
0.000370528571
0.000370530776
0.000370532873
0.00037053343
0.000370531438
0.000370529145
0.000370526551
0.000370523658
0.000370520473
0.000370517006
0.000370513272
0.000370509291
0.000370505088
0.000370500692
0.000370496135
0.000370491455
0.000370486691
0.000370481886
0.000370477082
0.000370472324
0.000370467652
0.000370463108
0.000370458729
0.000370454548
0.000370450593
0.00037044689
0.000370443455
0.000370440304
0.000370437441
0.000370434872
0.000370432594
0.000370430602
0.000370428886
0.000370427433
0.000370426232
0.000370425264
0.000370424513
0.000370423963
0.000370423594
0.000370423388
0.000370423331
0.000370423404
0.000370423592
0.000370423879
0.000370424254
0.000370424702
0.000370425212
0.000370425773
0.000370426376
0.000370427012
0.000370427675
0.000370428355
0.000370429048
0.000370429749
0.000370430451
0.000370431152
0.00037043185
0.000370432513
0.00037043269
0.000370432665
0.000370432692
0.000370432769
0.000370432891
0.000370433054
0.000370433254
0.000370433488
0.00037043375
0.000370434037
0.000370434346
0.000370434674
0.000370435017
0.000370435372
0.000370435738
0.000370436112
0.000370436491
0.000370436876
0.000370437262
0.00037043765
0.000370438039
0.000370438426
0.000370438812
0.000370439194
0.000370439574
0.000370439949
0.00037044032
0.000370440685
0.000370441044
0.000370441397
0.000370441745
0.000370442085
0.000370442417
0.000370442743
0.000370443061
0.000370443371
0.000370443674
0.000370443968
0.000370444255
0.000370444534
0.000370444804
0.000370445067
0.000370445321
0.000370445568
0.000370445807
0.000370446037
0.00037044626
0.000370446475
0.000370446681
0.00037044688
0.000370447073
0.000370447249
0.000370451553
0.000370450832
0.000370453535
0.000370451623
0.000370449596
0.000370447903
0.000370446858
0.000370446643
0.000370447345
0.000370448949
0.000370451355
0.000370454394
0.000370457886
0.000370461646
0.000370465477
0.000370469129
0.000370472304
0.000370474698
0.000370476084
0.000370476391
0.000370475734
0.000370474402
0.000370472786
0.000370471297
0.00037047029
0.000370470017
0.000370470603
0.000370472057
0.000370474294
0.000370477164
0.000370480472
0.000370483995
0.000370487484
0.000370490671
0.000370493283
0.000370495073
0.0003704953
0.000370494422
0.000370494066
0.000370492273
0.000370489829
0.000370487393
0.000370485341
0.000370483924
0.00037048323
0.00037048318
0.000370483576
0.000370484179
0.000370484779
0.000370485244
0.000370485535
0.000370485684
0.000370485757
0.000370485826
0.000370485943
0.000370486137
0.000370486421
0.000370486802
0.000370487288
0.000370487888
0.000370488614
0.00037048948
0.000370490495
0.000370491666
0.000370492998
0.000370494492
0.000370496146
0.000370497957
0.000370499919
0.000370502021
0.000370504256
0.000370506609
0.000370509066
0.000370511612
0.000370514228
0.000370516896
0.000370519596
0.000370522308
0.00037052501
0.000370527681
0.000370530295
0.00037053283
0.000370535259
0.000370536296
0.00037053415
0.000370531673
0.000370528863
0.00037052572
0.000370522254
0.000370518472
0.000370514393
0.000370510038
0.000370505434
0.000370500615
0.000370495618
0.000370490487
0.000370485268
0.000370480009
0.000370474764
0.000370469581
0.00037046451
0.000370459599
0.00037045489
0.000370450421
0.000370446224
0.000370442327
0.000370438748
0.0003704355
0.00037043259
0.000370430018
0.000370427779
0.000370425865
0.000370424261
0.000370422951
0.000370421917
0.000370421136
0.000370420589
0.000370420254
0.000370420108
0.000370420131
0.000370420303
0.000370420603
0.000370421015
0.000370421521
0.000370422107
0.000370422758
0.000370423461
0.000370424206
0.000370424982
0.000370425781
0.000370426595
0.000370427417
0.000370428242
0.000370429065
0.00037042988
0.000370430684
0.00037043147
0.000370431848
0.000370431793
0.000370431801
0.000370431863
0.000370431974
0.000370432131
0.000370432327
0.000370432559
0.000370432823
0.000370433113
0.000370433428
0.000370433762
0.000370434115
0.000370434481
0.000370434858
0.000370435246
0.000370435641
0.000370436041
0.000370436446
0.000370436852
0.000370437258
0.000370437665
0.00037043807
0.000370438472
0.00037043887
0.000370439265
0.000370439655
0.00037044004
0.000370440419
0.000370440791
0.000370441157
0.000370441516
0.000370441868
0.000370442212
0.000370442549
0.000370442878
0.000370443199
0.000370443513
0.000370443818
0.000370444114
0.000370444403
0.000370444684
0.000370444956
0.000370445219
0.000370445475
0.000370445723
0.000370445962
0.000370446194
0.000370446417
0.000370446632
0.000370446839
0.000370447041
0.000370447224
0.000370451543
0.000370450795
0.000370453321
0.000370451109
0.000370448706
0.000370446624
0.000370445228
0.000370444734
0.000370445249
0.000370446777
0.000370449216
0.000370452393
0.000370456112
0.000370460176
0.000370464367
0.000370468408
0.000370471958
0.000370474662
0.000370476248
0.000370476616
0.000370475876
0.000370474336
0.000370472427
0.00037047061
0.000370469292
0.00037046877
0.0003704692
0.000370470609
0.000370472916
0.000370475965
0.000370479548
0.00037048342
0.000370487307
0.000370490908
0.000370493909
0.00037049601
0.000370495311
0.000370494238
0.000370494179
0.000370493126
0.000370490381
0.000370487606
0.000370485222
0.000370483524
0.000370482627
0.000370482453
0.00037048279
0.000370483368
0.000370483949
0.000370484379
0.000370484608
0.000370484669
0.000370484636
0.000370484591
0.000370484592
0.000370484676
0.000370484858
0.000370485147
0.000370485552
0.000370486084
0.000370486759
0.000370487591
0.000370488593
0.000370489774
0.000370491138
0.000370492688
0.000370494422
0.000370496338
0.000370498427
0.00037050068
0.000370503088
0.000370505635
0.000370508305
0.000370511084
0.000370513951
0.000370516887
0.000370519873
0.000370522885
0.000370525902
0.000370528901
0.000370531856
0.000370534741
0.000370537531
0.000370539304
0.000370537014
0.000370534357
0.000370531332
0.000370527937
0.00037052418
0.000370520071
0.000370515628
0.000370510872
0.000370505838
0.00037050056
0.000370495082
0.000370489455
0.000370483733
0.000370477972
0.000370472235
0.000370466579
0.000370461064
0.000370455745
0.000370450671
0.000370445888
0.00037044143
0.000370437327
0.0003704336
0.000370430262
0.000370427316
0.00037042476
0.000370422584
0.000370420777
0.000370419317
0.000370418182
0.00037041735
0.000370416794
0.000370416485
0.0003704164
0.000370416511
0.000370416793
0.000370417223
0.000370417778
0.000370418438
0.000370419183
0.000370419999
0.000370420869
0.000370421779
0.000370422719
0.000370423678
0.000370424647
0.000370425619
0.000370426587
0.000370427544
0.000370428488
0.000370429414
0.000370430322
0.000370430927
0.000370430944
0.000370430926
0.00037043097
0.000370431067
0.000370431212
0.000370431401
0.000370431629
0.000370431892
0.000370432185
0.000370432504
0.000370432845
0.000370433205
0.000370433583
0.000370433973
0.000370434373
0.000370434783
0.000370435198
0.000370435618
0.000370436041
0.000370436465
0.000370436889
0.000370437312
0.000370437733
0.00037043815
0.000370438563
0.000370438973
0.000370439377
0.000370439775
0.000370440167
0.000370440552
0.00037044093
0.000370441301
0.000370441664
0.000370442019
0.000370442367
0.000370442707
0.000370443037
0.00037044336
0.000370443675
0.00037044398
0.000370444278
0.000370444568
0.000370444849
0.000370445121
0.000370445385
0.000370445641
0.000370445889
0.000370446129
0.00037044636
0.000370446583
0.000370446799
0.000370447009
0.000370447199
0.000370451528
0.000370450758
0.000370453106
0.000370450592
0.00037044781
0.000370445336
0.000370443586
0.000370442809
0.00037044314
0.000370444596
0.000370447077
0.000370450402
0.000370454361
0.000370458739
0.000370463296
0.000370467722
0.000370471635
0.000370474632
0.000370476399
0.000370476809
0.000370475971
0.000370474215
0.000370472011
0.000370469873
0.000370468258
0.000370467504
0.000370467799
0.000370469185
0.000370471585
0.000370474834
0.00037047871
0.000370482945
0.000370487237
0.000370491249
0.000370494627
0.000370497044
0.00037049532
0.000370494043
0.000370493912
0.000370494155
0.000370491097
0.000370487952
0.00037048521
0.00037048321
0.000370482091
0.000370481779
0.000370482043
0.000370482585
0.000370483134
0.000370483515
0.000370483667
0.000370483622
0.000370483463
0.00037048328
0.000370483143
0.000370483093
0.00037048315
0.000370483325
0.000370483629
0.000370484076
0.000370484685
0.000370485472
0.000370486454
0.000370487639
0.000370489036
0.000370490647
0.000370492471
0.000370494504
0.00037049674
0.000370499167
0.000370501776
0.000370504548
0.000370507469
0.000370510519
0.000370513678
0.000370516925
0.000370520238
0.000370523594
0.000370526969
0.00037053034
0.000370533678
0.000370536959
0.000370540152
0.000370542903
0.000370540542
0.000370537707
0.000370534462
0.000370530803
0.000370526737
0.000370522271
0.000370517425
0.000370512222
0.000370506698
0.000370500894
0.00037049486
0.000370488656
0.000370482344
0.000370475994
0.000370469676
0.000370463462
0.000370457421
0.000370451619
0.000370446115
0.000370440959
0.000370436193
0.00037043185
0.000370427951
0.000370424507
0.00037042152
0.000370418984
0.000370416884
0.0003704152
0.000370413906
0.000370412974
0.000370412372
0.000370412069
0.00037041203
0.000370412225
0.000370412622
0.000370413191
0.000370413905
0.000370414739
0.00037041567
0.000370416677
0.000370417742
0.000370418849
0.000370419982
0.000370421132
0.000370422287
0.000370423437
0.000370424577
0.0003704257
0.000370426801
0.000370427877
0.000370428923
0.000370429771
0.000370429909
0.000370429871
0.0003704299
0.000370429991
0.000370430135
0.000370430327
0.000370430561
0.000370430832
0.000370431135
0.000370431467
0.000370431823
0.000370432199
0.000370432592
0.000370433001
0.000370433421
0.000370433849
0.000370434285
0.000370434726
0.00037043517
0.000370435616
0.000370436062
0.000370436507
0.00037043695
0.000370437389
0.000370437825
0.000370438255
0.000370438681
0.0003704391
0.000370439513
0.000370439919
0.000370440318
0.000370440709
0.000370441093
0.000370441468
0.000370441835
0.000370442195
0.000370442545
0.000370442887
0.000370443221
0.000370443545
0.000370443861
0.000370444169
0.000370444468
0.000370444758
0.000370445039
0.000370445313
0.000370445577
0.000370445833
0.000370446081
0.000370446321
0.000370446552
0.000370446776
0.000370446994
0.000370447191
0.000370451535
0.000370450721
0.000370452889
0.00037045007
0.000370446904
0.000370444034
0.000370441923
0.000370440859
0.000370441
0.00037044238
0.000370444902
0.000370448376
0.00037045258
0.00037045728
0.000370462215
0.000370467043
0.000370471339
0.000370474651
0.000370476621
0.000370477091
0.000370476166
0.000370474197
0.000370471697
0.00037046923
0.000370467307
0.000370466312
0.000370466463
0.000370467821
0.000370470314
0.000370473771
0.000370477954
0.000370482574
0.000370487298
0.000370491755
0.00037049555
0.000370497918
0.000370495423
0.000370493933
0.000370493714
0.000370494698
0.000370492032
0.00037048853
0.00037048543
0.00037048312
0.000370481765
0.000370481297
0.000370481467
0.000370481949
0.000370482442
0.000370482747
0.000370482792
0.00037048261
0.000370482292
0.000370481939
0.00037048163
0.000370481414
0.000370481315
0.000370481346
0.000370481521
0.000370481859
0.00037048238
0.000370483106
0.000370484053
0.000370485235
0.00037048666
0.000370488332
0.000370490248
0.000370492407
0.000370494799
0.000370497413
0.000370500235
0.000370503248
0.000370506433
0.000370509771
0.000370513239
0.000370516814
0.000370520475
0.000370524196
0.000370527952
0.000370531721
0.000370535473
0.000370539181
0.000370542814
0.000370546341
0.000370544488
0.000370541485
0.000370538024
0.000370534099
0.000370529712
0.000370524871
0.000370519593
0.000370513903
0.00037050784
0.00037050145
0.000370494791
0.000370487933
0.000370480949
0.000370473921
0.000370466936
0.000370460079
0.000370453432
0.000370447076
0.000370441079
0.000370435501
0.00037043039
0.000370425783
0.000370421699
0.000370418152
0.000370415137
0.000370412642
0.000370410647
0.000370409123
0.000370408037
0.00037040735
0.000370407025
0.000370407021
0.000370407296
0.000370407815
0.000370408539
0.000370409433
0.000370410467
0.000370411613
0.000370412843
0.000370414136
0.000370415473
0.000370416835
0.000370418208
0.000370419581
0.000370420942
0.000370422283
0.000370423598
0.000370424881
0.000370426128
0.000370427335
0.000370428475
0.000370428795
0.000370428741
0.000370428761
0.000370428846
0.000370428991
0.000370429187
0.000370429429
0.000370429711
0.000370430028
0.000370430374
0.000370430747
0.000370431142
0.000370431555
0.000370431983
0.000370432425
0.000370432875
0.000370433333
0.000370433797
0.000370434264
0.000370434733
0.000370435202
0.00037043567
0.000370436136
0.000370436599
0.000370437058
0.000370437511
0.000370437959
0.000370438401
0.000370438836
0.000370439264
0.000370439685
0.000370440097
0.000370440501
0.000370440898
0.000370441286
0.000370441664
0.000370442034
0.000370442396
0.000370442747
0.000370443091
0.000370443426
0.000370443751
0.000370444068
0.000370444375
0.000370444674
0.000370444964
0.000370445246
0.000370445519
0.000370445783
0.00037044604
0.000370446288
0.000370446527
0.000370446758
0.000370446984
0.000370447188
0.000370451542
0.000370450683
0.000370452669
0.00037044954
0.000370445987
0.000370442714
0.000370440237
0.000370438879
0.000370438827
0.00037044013
0.000370442696
0.000370446325
0.000370450783
0.000370455817
0.00037046114
0.000370466379
0.000370471062
0.00037047469
0.000370476858
0.000370477383
0.000370476367
0.000370474183
0.000370471387
0.000370468595
0.000370466369
0.000370465138
0.000370465153
0.000370466493
0.000370469091
0.00037047277
0.000370477276
0.000370482298
0.000370487471
0.000370492387
0.00037049661
0.000370498489
0.000370495595
0.000370493873
0.000370493553
0.000370494618
0.000370493201
0.000370489324
0.000370485851
0.000370483214
0.000370481608
0.000370480967
0.000370481026
0.00037048143
0.000370481846
0.000370482053
0.000370481965
0.000370481616
0.000370481107
0.000370480549
0.000370480033
0.000370479613
0.000370479321
0.000370479174
0.00037047919
0.000370479389
0.000370479798
0.000370480441
0.000370481338
0.000370482506
0.000370483953
0.000370485685
0.0003704877
0.000370489994
0.000370492558
0.000370495379
0.000370498441
0.000370501724
0.000370505207
0.000370508868
0.000370512682
0.000370516625
0.000370520673
0.000370524799
0.000370528978
0.000370533186
0.000370537394
0.000370541574
0.000370545695
0.000370549722
0.000370549105
0.000370545943
0.000370542269
0.000370538072
0.00037053335
0.000370528106
0.000370522357
0.000370516127
0.000370509458
0.000370502401
0.000370495025
0.000370487408
0.000370479641
0.000370471821
0.000370464054
0.000370456441
0.000370449084
0.000370442079
0.000370435508
0.000370429443
0.000370423938
0.000370419034
0.000370414751
0.000370411099
0.000370408068
0.00037040564
0.000370403784
0.000370402461
0.000370401629
0.000370401237
0.00037040124
0.000370401584
0.000370402224
0.000370403113
0.000370404207
0.000370405467
0.000370406858
0.000370408347
0.000370409907
0.000370411511
0.000370413142
0.000370414779
0.000370416408
0.000370418018
0.000370419598
0.000370421139
0.000370422638
0.000370424088
0.000370425487
0.000370426831
0.00037042749
0.000370427423
0.000370427439
0.000370427528
0.00037042768
0.00037042789
0.000370428149
0.00037042845
0.000370428788
0.000370429159
0.000370429557
0.000370429978
0.000370430418
0.000370430874
0.000370431342
0.000370431821
0.000370432308
0.000370432799
0.000370433294
0.000370433791
0.000370434287
0.000370434783
0.000370435276
0.000370435764
0.000370436249
0.000370436729
0.000370437202
0.000370437668
0.000370438128
0.000370438579
0.000370439023
0.000370439458
0.000370439885
0.000370440303
0.000370440712
0.000370441112
0.000370441503
0.000370441885
0.000370442257
0.00037044262
0.000370442974
0.000370443319
0.000370443654
0.000370443981
0.000370444298
0.000370444606
0.000370444904
0.000370445195
0.000370445476
0.000370445748
0.000370446013
0.000370446269
0.000370446516
0.000370446755
0.000370446989
0.000370447199
0.000370451567
0.000370450644
0.000370452444
0.000370449002
0.000370445055
0.000370441373
0.000370438522
0.000370436864
0.000370436614
0.000370437838
0.000370440448
0.000370444238
0.000370448957
0.000370454334
0.000370460058
0.000370465719
0.000370470801
0.000370474754
0.000370477129
0.000370477714
0.00037047661
0.00037047421
0.000370471115
0.000370467993
0.00037046546
0.000370463991
0.000370463871
0.000370465198
0.000370467912
0.000370471829
0.00037047668
0.000370482129
0.00037048778
0.000370493186
0.000370497864
0.000370499125
0.00037049587
0.000370493903
0.000370493467
0.000370494536
0.000370494625
0.000370490378
0.000370486528
0.000370483556
0.000370481685
0.000370480854
0.000370480782
0.000370481085
0.000370481398
0.000370481476
0.000370481221
0.000370480669
0.000370479928
0.000370479122
0.000370478354
0.000370477688
0.000370477161
0.000370476795