/*--------------------------------*- C++ -*----------------------------------*\
| =========                 |                                                 |
| \\      /  F ield         | OpenFOAM: The Open Source CFD Toolbox           |
|  \\    /   O peration     | Version:  v2012                                 |
|   \\  /    A nd           | Website:  www.openfoam.com                      |
|    \\/     M anipulation  |                                                 |
\*---------------------------------------------------------------------------*/
FoamFile
{
    version     2.0;
    format      ascii;
    class       volVectorField;
    location    "2.49";
    object      U;
}
// * * * * * * * * * * * * * * * * * * * * * * * * * * * * * * * * * * * * * //

dimensions      [0 1 -1 0 0 0 0];


internalField   nonuniform List<vector> 
28416
(
(0.0999995267 8.55308878e-06 0)
(0.0999924886 3.24388586e-05 0)
(0.0999740444 6.34053172e-05 0)
(0.0999410483 9.88680061e-05 0)
(0.099893255 0.000134914833 0)
(0.0998321315 0.000167574409 0)
(0.0997598923 0.0001934952 0)
(0.099679428 0.000210237814 0)
(0.0995942471 0.00021655293 0)
(0.0995080387 0.000212521868 0)
(0.0994242123 0.000199249305 0)
(0.0993457312 0.000178278804 0)
(0.0992751586 0.000151302618 0)
(0.0992146428 0.000120448336 0)
(0.099165653 8.87978617e-05 0)
(0.0991285008 6.04911149e-05 0)
(0.0991018548 4.00962462e-05 0)
(0.0990826833 3.15186691e-05 0)
(0.0990666709 3.6765032e-05 0)
(0.0990487135 5.54602099e-05 0)
(0.0990239769 8.52767843e-05 0)
(0.0989894284 0.000122387494 0)
(0.0989442774 0.000161970444 0)
(0.0988892593 0.000199120985 0)
(0.0988261348 0.00022971272 0)
(0.0987575671 0.000250769795 0)
(0.0986867575 0.000260533163 0)
(0.0986169369 0.000258458775 0)
(0.0985510823 0.000245158418 0)
(0.0984918268 0.000222279848 0)
(0.0984413793 0.000192383309 0)
(0.0984013811 0.000158834436 0)
(0.0983728394 0.000125669556 0)
(0.0983557092 9.72264242e-05 0)
(0.0983485717 7.7837268e-05 0)
(0.098348879 7.11222979e-05 0)
(0.0983532272 7.92702117e-05 0)
(0.0983578889 0.000102495801 0)
(0.0983594724 0.00013869114 0)
(0.0983554259 0.000183676294 0)
(0.0983444275 0.000232075164 0)
(0.0983265442 0.000278517297 0)
(0.0983030489 0.000318805642 0)
(0.0982759485 0.00035070841 0)
(0.0982473846 0.000374148686 0)
(0.0982190989 0.000390777145 0)
(0.0981921101 0.000403133548 0)
(0.0981666598 0.000413731464 0)
(0.0981423848 0.000424382599 0)
(0.0981186028 0.000435931636 0)
(0.0980945907 0.000448380702 0)
(0.0980697656 0.000461238992 0)
(0.0980437449 0.000473893487 0)
(0.0980163144 0.000485854811 0)
(0.0979873561 0.000496834966 0)
(0.0979567848 0.000506700111 0)
(0.0979245161 0.000515376844 0)
(0.0978904657 0.000522776379 0)
(0.097854566 0.000528763337 0)
(0.0978167843 0.000533162641 0)
(0.0977771355 0.000535783334 0)
(0.0977356862 0.00053644052 0)
(0.0976925545 0.000534967399 0)
(0.0976479075 0.000531218424 0)
(0.0976019591 0.000525068283 0)
(0.0975549687 0.00051641063 0)
(0.0975072391 0.000505158146 0)
(0.0974591139 0.000491243786 0)
(0.0974109743 0.000474622556 0)
(0.0973632353 0.000455273398 0)
(0.0973163414 0.000433201058 0)
(0.0972707642 0.000408437777 0)
(0.0972270001 0.000381044284 0)
(0.0971855697 0.000351109652 0)
(0.0971470179 0.000318748816 0)
(0.0971119125 0.000284097435 0)
(0.0970808434 0.00024730458 0)
(0.097054413 0.000208519969 0)
(0.0970332091 0.000167886672 0)
(0.0970177627 0.00012555122 0)
(0.0970085249 8.16814058e-05 0)
(0.0970057051 3.65113415e-05 0)
(0.097009587 -9.339156e-06 0)
(0.0970214654 -5.53699426e-05 0)
(0.0970423199 -0.000101959203 0)
(0.0970720202 -0.000149095604 0)
(0.0971105734 -0.000196484926 0)
(0.0971581375 -0.000243828236 0)
(0.0972147448 -0.000290806954 0)
(0.0972803243 -0.000337069256 0)
(0.0973547321 -0.00038224806 0)
(0.0974377268 -0.000425964816 0)
(0.0975289628 -0.000467828897 0)
(0.097627997 -0.000507443086 0)
(0.0977342962 -0.000544413896 0)
(0.0978472439 -0.000578364746 0)
(0.0979661491 -0.000608950467 0)
(0.0980902555 -0.000635870916 0)
(0.0982187506 -0.000658881636 0)
(0.098350776 -0.000677800729 0)
(0.0984854399 -0.000692512151 0)
(0.0986218307 -0.000702966192 0)
(0.0987590326 -0.000709178034 0)
(0.0988961413 -0.00071122498 0)
(0.0990322794 -0.00070924256 0)
(0.0991666109 -0.000703419536 0)
(0.0992983529 -0.000693991778 0)
(0.0994267866 -0.00068123512 0)
(0.0995512644 -0.000665457422 0)
(0.0996712162 -0.000646990187 0)
(0.0997861522 -0.00062618009 0)
(0.0998956643 -0.000603380813 0)
(0.0999994253 -0.000578945443 0)
(0.100097186 -0.000553219656 0)
(0.10018877 -0.000526535707 0)
(0.100274069 -0.000499207054 0)
(0.100353032 -0.000471523878 0)
(0.100425648 -0.000443745468 0)
(0.100491949 -0.000416090047 0)
(0.100552035 -0.000388734659 0)
(0.100606086 -0.000361826401 0)
(0.100654353 -0.000335498275 0)
(0.100697111 -0.000309876841 0)
(0.10073461 -0.000285067504 0)
(0.100767098 -0.000261124709 0)
(0.100794874 -0.000238072545 0)
(0.100818262 -0.000215940092 0)
(0.100837582 -0.000194756785 0)
(0.100853143 -0.000174544026 0)
(0.10086524 -0.000155311241 0)
(0.100874153 -0.000137046732 0)
(0.10088015 -0.000119721699 0)
(0.100883497 -0.000103297537 0)
(0.100884464 -8.77312768e-05 0)
(0.100883322 -7.29806403e-05 0)
(0.100880355 -5.90105667e-05 0)
(0.100875857 -4.58016482e-05 0)
(0.100870141 -3.33792996e-05 0)
(0.100863501 -2.18428215e-05 0)
(0.100856196 -1.14170144e-05 0)
(0.100848272 -2.35246434e-06 0)
(0.100839391 5.36877101e-06 0)
(0.100829242 1.2021104e-05 0)
(0.100817903 1.78578498e-05 0)
(0.100805622 2.30241691e-05 0)
(0.100792608 2.76038673e-05 0)
(0.100779006 3.1657156e-05 0)
(0.100764917 3.52394616e-05 0)
(0.100750432 3.84041336e-05 0)
(0.100735646 4.11973078e-05 0)
(0.100720647 4.36567058e-05 0)
(0.100705513 4.58134467e-05 0)
(0.100690314 4.7692719e-05 0)
(0.100675112 4.93141872e-05 0)
(0.10065996 5.0693491e-05 0)
(0.100644902 5.18440974e-05 0)
(0.100629975 5.27786664e-05 0)
(0.100615209 5.35098831e-05 0)
(0.10060063 5.40508855e-05 0)
(0.100586258 5.44153396e-05 0)
(0.100572114 5.46172576e-05 0)
(0.100558212 5.46707006e-05 0)
(0.100544568 5.45894589e-05 0)
(0.100531196 5.43867442e-05 0)
(0.100518106 5.40749158e-05 0)
(0.100505312 5.36652645e-05 0)
(0.100492821 5.31678794e-05 0)
(0.100480644 5.25916005e-05 0)
(0.100468788 5.19440549e-05 0)
(0.10045726 5.12317636e-05 0)
(0.100446064 5.0460305e-05 0)
(0.100435204 4.96345129e-05 0)
(0.100424684 4.87586817e-05 0)
(0.100414506 4.78367543e-05 0)
(0.100404669 4.68724746e-05 0)
(0.100395176 4.58694916e-05 0)
(0.100386025 4.48314115e-05 0)
(0.100377217 4.37618029e-05 0)
(0.10036875 4.26641609e-05 0)
(0.100360626 4.15418435e-05 0)
(0.100352844 4.03979927e-05 0)
(0.100345403 3.92354398e-05 0)
(0.100338306 3.80566473e-05 0)
(0.100331552 3.68634345e-05 0)
(0.100325149 3.56575398e-05 0)
(0.100319076 3.44367821e-05 0)
(0.100313434 3.32106958e-05 0)
(0.100307905 3.19218238e-05 0)
(0.100303716 3.08020013e-05 0)
(0.100297017 2.86829833e-05 0)
(0.0999999999 1.39416175e-05 0)
(0.0999966364 5.60190329e-05 0)
(0.0999833668 0.000112719853 0)
(0.099954423 0.000177907705 0)
(0.0999083366 0.000243575435 0)
(0.0998466848 0.000302532236 0)
(0.0997720147 0.000349177219 0)
(0.0996875179 0.000379645682 0)
(0.0995971482 0.000392075314 0)
(0.0995051869 0.000386719971 0)
(0.0994156613 0.000365386887 0)
(0.0993321025 0.000330485735 0)
(0.0992575799 0.000284611759 0)
(0.0991946768 0.000231110739 0)
(0.0991451649 0.000175033971 0)
(0.099109449 0.000123416676 0)
(0.0990861261 8.4273617e-05 0)
(0.099071825 6.46487839e-05 0)
(0.0990617061 6.85849848e-05 0)
(0.0990504209 9.58394764e-05 0)
(0.0990327703 0.00014214166 0)
(0.0990045093 0.000200439132 0)
(0.0989633486 0.000262310206 0)
(0.0989092365 0.000319532509 0)
(0.0988439502 0.000365447766 0)
(0.098770599 0.000395574907 0)
(0.0986931139 0.000407592313 0)
(0.0986156855 0.000401079908 0)
(0.0985423244 0.000377205351 0)
(0.098476622 0.000338450882 0)
(0.0984216058 0.000288474839 0)
(0.0983795735 0.000232094712 0)
(0.0983518702 0.000175250807 0)
(0.0983385894 0.000124618286 0)
(0.0983382538 8.70905041e-05 0)
(0.0983478463 6.87009492e-05 0)
(0.0983631922 7.32855396e-05 0)
(0.0983794032 0.000101312419 0)
(0.0983915842 0.000149378251 0)
(0.0983957936 0.000210783194 0)
(0.0983898256 0.000276991317 0)
(0.0983735344 0.000339562699 0)
(0.0983486441 0.000392030024 0)
(0.0983181109 0.000431148862 0)
(0.0982852363 0.000457151291 0)
(0.0982528121 0.000472998836 0)
(0.098222553 0.000482986709 0)
(0.0981949462 0.000491250132 0)
(0.0981694823 0.000500685708 0)
(0.0981451057 0.000512558198 0)
(0.0981206757 0.000526747212 0)
(0.098095282 0.000542353607 0)
(0.0980683569 0.00055832402 0)
(0.0980396242 0.0005738533 0)
(0.0980089743 0.000588498982 0)
(0.0979763489 0.00060208661 0)
(0.0979416788 0.000614541557 0)
(0.0979048772 0.000625756458 0)
(0.0978658651 0.000635537975 0)
(0.0978246017 0.000643619436 0)
(0.0977811042 0.00064970151 0)
(0.097735454 0.000653489165 0)
(0.097687794 0.000654711416 0)
(0.0976383234 0.000653126017 0)
(0.0975872927 0.000648517455 0)
(0.0975350012 0.000640695041 0)
(0.0974817941 0.000629493615 0)
(0.0974280603 0.000614776176 0)
(0.0973742288 0.000596436797 0)
(0.0973207645 0.000574402625 0)
(0.0972681647 0.00054863467 0)
(0.0972169545 0.000519127536 0)
(0.0971676834 0.00048590827 0)
(0.0971209213 0.000449034523 0)
(0.0970772543 0.00040859178 0)
(0.0970372794 0.000364689689 0)
(0.0970015964 0.000317458327 0)
(0.0969708002 0.000267043242 0)
(0.0969454764 0.000213604903 0)
(0.0969261863 0.0001573331 0)
(0.0969134981 9.84948628e-05 0)
(0.0969082158 3.74582387e-05 0)
(0.0969110706 -2.5358544e-05 0)
(0.0969222618 -8.94274677e-05 0)
(0.0969421391 -0.000154618708 0)
(0.0969712521 -0.000220681187 0)
(0.0970098715 -0.000287197076 0)
(0.0970581539 -0.000353724877 0)
(0.0971161861 -0.000419787431 0)
(0.0971839517 -0.000484856353 0)
(0.0972613298 -0.000548370743 0)
(0.0973480899 -0.000609750808 0)
(0.0974438867 -0.000668407856 0)
(0.0975482615 -0.000723757991 0)
(0.0976606464 -0.000775237281 0)
(0.0977803706 -0.000822316618 0)
(0.0979066683 -0.000864516216 0)
(0.0980386894 -0.000901419223 0)
(0.0981755119 -0.000932683588 0)
(0.098316156 -0.000958051692 0)
(0.0984596014 -0.000977357335 0)
(0.0986048058 -0.000990529657 0)
(0.0987507241 -0.000997593819 0)
(0.0988963285 -0.000998668484 0)
(0.0990406273 -0.000993960298 0)
(0.0991826815 -0.000983755806 0)
(0.0993216198 -0.00096841131 0)
(0.09945665 -0.000948341239 0)
(0.0995870685 -0.000924005598 0)
(0.0997122657 -0.00089589707 0)
(0.099831729 -0.000864528248 0)
(0.099945043 -0.000830419497 0)
(0.100051888 -0.000794087758 0)
(0.100152034 -0.00075603654 0)
(0.100245337 -0.000716747177 0)
(0.10033173 -0.000676671201 0)
(0.100411217 -0.000636224205 0)
(0.100483862 -0.00059577715 0)
(0.100549783 -0.000555645269 0)
(0.100609154 -0.000516087293 0)
(0.100662196 -0.000477316472 0)
(0.10070918 -0.000439518027 0)
(0.100750403 -0.000402860088 0)
(0.100786195 -0.000367480269 0)
(0.100816892 -0.000333466031 0)
(0.100842818 -0.000300869035 0)
(0.100864288 -0.000269730361 0)
(0.100881629 -0.000240080221 0)
(0.100895171 -0.000211934312 0)
(0.100905245 -0.000185294799 0)
(0.100912174 -0.000160156894 0)
(0.100916256 -0.000136500675 0)
(0.100917775 -0.000114288473 0)
(0.100917002 -9.34713748e-05 0)
(0.100914203 -7.40002621e-05 0)
(0.100909633 -5.58467003e-05 0)
(0.100903518 -3.9015543e-05 0)
(0.100896034 -2.35042239e-05 0)
(0.100887244 -9.28205948e-06 0)
(0.100877234 3.70507668e-06 0)
(0.100866325 1.53029631e-05 0)
(0.100854786 2.53858023e-05 0)
(0.100842577 3.41182329e-05 0)
(0.100829628 4.1749497e-05 0)
(0.100815991 4.84500702e-05 0)
(0.100801779 5.43265423e-05 0)
(0.100787104 5.94573727e-05 0)
(0.100772061 6.39135233e-05 0)
(0.100756731 6.77636824e-05 0)
(0.100741189 7.10690146e-05 0)
(0.100725508 7.38816017e-05 0)
(0.100709754 7.6247472e-05 0)
(0.100693983 7.82080048e-05 0)
(0.100678248 7.97997294e-05 0)
(0.100662596 8.10547749e-05 0)
(0.100647066 8.2001781e-05 0)
(0.100631694 8.26665326e-05 0)
(0.10061651 8.30724188e-05 0)
(0.100601541 8.32409164e-05 0)
(0.100586809 8.31920219e-05 0)
(0.100572333 8.29445325e-05 0)
(0.10055813 8.25161834e-05 0)
(0.100544212 8.19236957e-05 0)
(0.100530593 8.11827743e-05 0)
(0.100517281 8.03080745e-05 0)
(0.100504287 7.93131569e-05 0)
(0.100491617 7.82104557e-05 0)
(0.100479279 7.70112712e-05 0)
(0.100467277 7.57257948e-05 0)
(0.100455615 7.43631638e-05 0)
(0.100444298 7.29315407e-05 0)
(0.100433329 7.14382117e-05 0)
(0.100422708 6.98896946e-05 0)
(0.100412437 6.8291843e-05 0)
(0.100402516 6.66499433e-05 0)
(0.100392947 6.49687958e-05 0)
(0.100383727 6.32527729e-05 0)
(0.100374857 6.15058568e-05 0)
(0.100366337 5.97316532e-05 0)
(0.100358165 5.79333823e-05 0)
(0.10035034 5.61138483e-05 0)
(0.100342863 5.42753725e-05 0)
(0.100335734 5.24197458e-05 0)
(0.10032895 5.05478607e-05 0)
(0.10032252 4.86605032e-05 0)
(0.100316416 4.67529596e-05 0)
(0.100310738 4.48382462e-05 0)
(0.10030514 4.28323031e-05 0)
(0.100300883 4.10906234e-05 0)
(0.100293842 3.78915502e-05 0)
(0.0999997124 1.39104474e-05 0)
(0.0999946558 5.92783356e-05 0)
(0.0999795382 0.000123545617 0)
(0.0999495182 0.000198788101 0)
(0.0999031745 0.000274893162 0)
(0.0998418347 0.000343346574 0)
(0.0997678639 0.00039774621 0)
(0.0996842739 0.000433675136 0)
(0.0995948107 0.00044895733 0)
(0.0995035747 0.00044380309 0)
(0.0994144667 0.000420170602 0)
(0.0993309299 0.000380681744 0)
(0.0992559679 0.000328159968 0)
(0.0991921353 0.000266305208 0)
(0.0991412707 0.000200824657 0)
(0.0991039768 0.000139800423 0)
(0.099079075 9.2574174e-05 0)
(0.0990634456 6.74336102e-05 0)
(0.0990522502 6.93090611e-05 0)
(0.0990396961 9.83761065e-05 0)
(0.0990204533 0.00014999147 0)
(0.0989907884 0.000215987106 0)
(0.0989489263 0.000286596932 0)
(0.0988949636 0.000352287039 0)
(0.0988305717 0.000405180259 0)
(0.098758611 0.000439855458 0)
(0.0986826983 0.000453482919 0)
(0.0986067494 0.000445534747 0)
(0.098534595 0.000417350926 0)
(0.0984697294 0.000371759587 0)
(0.0984151325 0.000312876206 0)
(0.0983730845 0.000246082367 0)
(0.0983449375 0.000178020548 0)
(0.0983308495 0.000116328265 0)
(0.0983295684 6.89096459e-05 0)
(0.0983383823 4.271868e-05 0)
(0.0983532382 4.22088235e-05 0)
(0.0983692699 6.81398409e-05 0)
(0.098381761 0.000117162795 0)
(0.0983870041 0.000182055321 0)
(0.0983828408 0.00025313184 0)
(0.0983689424 0.000320497955 0)
(0.0983467186 0.000376361845 0)
(0.0983187944 0.000416659144 0)
(0.0982882144 0.000441502286 0)
(0.0982576406 0.000454383798 0)
(0.098228788 0.000460519048 0)
(0.0982022371 0.000465002569 0)
(0.0981776086 0.000471437291 0)
(0.0981539593 0.00048140547 0)
(0.0981302101 0.000494749982 0)
(0.0981054553 0.00051032635 0)
(0.0980790897 0.000526794341 0)
(0.0980507812 0.000543136684 0)
(0.0980203665 0.000558811462 0)
(0.0979877471 0.000573632602 0)
(0.097952829 0.000587551044 0)
(0.0979155131 0.000600479049 0)
(0.0978757155 0.000612216921 0)
(0.0978333951 0.000622466584 0)
(0.0977885715 0.000630883245 0)
(0.097741332 0.000637123156 0)
(0.0976918298 0.000640869082 0)
(0.0976402792 0.000641835875 0)
(0.0975869503 0.00063976702 0)
(0.0975321662 0.000634431213 0)
(0.0974762988 0.000625622418 0)
(0.097419766 0.000613162652 0)
(0.0973630267 0.000596905451 0)
(0.0973065756 0.000576738581 0)
(0.0972509383 0.000552585683 0)
(0.0971966666 0.000524407003 0)
(0.0971443346 0.000492199432 0)
(0.0970945352 0.000455995836 0)
(0.0970478779 0.000415863968 0)
(0.0970049852 0.000371904961 0)
(0.0969664896 0.000324252079 0)
(0.0969330297 0.000273072208 0)
(0.0969052466 0.00021856794 0)
(0.0968837946 0.000160980252 0)
(0.0968693112 0.000100596592 0)
(0.0968621161 3.76999867e-05 0)
(0.0968625927 -2.74866443e-05 0)
(0.0968716809 -9.47028619e-05 0)
(0.096890081 -0.000163532049 0)
(0.0969180499 -0.000233603295 0)
(0.0969558581 -0.000304487147 0)
(0.0970037544 -0.000375679133 0)
(0.0970618749 -0.000446625747 0)
(0.0971302419 -0.000516728554 0)
(0.0972087682 -0.000585351667 0)
(0.0972972475 -0.000651832921 0)
(0.0973953475 -0.000715494909 0)
(0.097502609 -0.000775658942 0)
(0.0976184473 -0.000831662295 0)
(0.0977421568 -0.000882877257 0)
(0.0978729192 -0.00092873082 0)
(0.0980098152 -0.000968723473 0)
(0.0981518398 -0.00100244538 0)
(0.0982979203 -0.00102958886 0)
(0.0984469377 -0.00104995664 0)
(0.0985977485 -0.00106346582 0)
(0.098749209 -0.00107014771 0)
(0.098900197 -0.00107014402 0)
(0.0990496345 -0.00106369964 0)
(0.0991965061 -0.00105115254 0)
(0.099339876 -0.0010329212 0)
(0.0994789011 -0.00100949037 0)
(0.0996128402 -0.000981395603 0)
(0.0997410604 -0.000949207503 0)
(0.0998630389 -0.000913516263 0)
(0.0999783632 -0.000874917074 0)
(0.100086727 -0.000833996881 0)
(0.100187924 -0.000791322739 0)
(0.100281841 -0.00074743199 0)
(0.100368449 -0.000702824254 0)
(0.100447793 -0.000657955222 0)
(0.100519983 -0.000613231813 0)
(0.100585184 -0.00056900839 0)
(0.100643615 -0.000525586005 0)
(0.100695546 -0.000483215367 0)
(0.100741283 -0.000442102615 0)
(0.100781157 -0.000402415581 0)
(0.100815514 -0.000364286638 0)
(0.100844702 -0.000327824153 0)
(0.100869074 -0.000293107096 0)
(0.10088898 -0.000260177907 0)
(0.100904771 -0.0002290518 0)
(0.100916787 -0.000199724473 0)
(0.100925346 -0.000172177778 0)
(0.100930756 -0.000146390462 0)
(0.100933323 -0.000122332889 0)
(0.100933344 -9.99640478e-05 0)
(0.100931103 -7.92350658e-05 0)
(0.10092685 -6.00912977e-05 0)
(0.100920802 -4.24622781e-05 0)
(0.100913227 -2.6259356e-05 0)
(0.100904476 -1.14120763e-05 0)
(0.100894905 2.09329892e-06 0)
(0.10088456 1.43482713e-05 0)
(0.100873279 2.5484838e-05 0)
(0.100861088 3.54818693e-05 0)
(0.100848108 4.43246434e-05 0)
(0.100834424 5.2094716e-05 0)
(0.100820117 5.89017574e-05 0)
(0.100805291 6.48446579e-05 0)
(0.10079005 7.0006986e-05 0)
(0.100774484 7.44617802e-05 0)
(0.100758672 7.82777063e-05 0)
(0.100742689 8.15185979e-05 0)
(0.100726606 8.42405545e-05 0)
(0.10071049 8.64921016e-05 0)
(0.100694399 8.83156527e-05 0)
(0.100678384 8.97484649e-05 0)
(0.10066249 9.08236281e-05 0)
(0.100646752 9.15712032e-05 0)
(0.100631201 9.20190544e-05 0)
(0.100615863 9.21932946e-05 0)
(0.10060076 9.21185136e-05 0)
(0.100585909 9.18178753e-05 0)
(0.100571327 9.13131215e-05 0)
(0.100557028 9.06245384e-05 0)
(0.100543024 8.97709277e-05 0)
(0.100529326 8.87695881e-05 0)
(0.100515944 8.7636307e-05 0)
(0.100502887 8.63853717e-05 0)
(0.100490161 8.50296072e-05 0)
(0.100477773 8.35804428e-05 0)
(0.100465729 8.20480095e-05 0)
(0.100454032 8.04412606e-05 0)
(0.100442686 7.87681086e-05 0)
(0.100431692 7.7035573e-05 0)
(0.100421052 7.52499258e-05 0)
(0.100410766 7.34168219e-05 0)
(0.100400833 7.15414064e-05 0)
(0.100391255 6.96283929e-05 0)
(0.100382028 6.76821064e-05 0)
(0.100373153 6.57064995e-05 0)
(0.100364628 6.37051423e-05 0)
(0.100356452 6.16811919e-05 0)
(0.100348623 5.96373462e-05 0)
(0.100341141 5.75757701e-05 0)
(0.100334006 5.54980608e-05 0)
(0.100327215 5.34049078e-05 0)
(0.100320774 5.12970956e-05 0)
(0.100314657 4.91698151e-05 0)
(0.100308962 4.70392701e-05 0)
(0.100303353 4.48153421e-05 0)
(0.100299085 4.29013561e-05 0)
(0.100292167 3.94157138e-05 0)
(0.0999999739 1.7298202e-05 0)
(0.0999963479 7.45244473e-05 0)
(0.0999829874 0.000156834529 0)
(0.0999543217 0.000254045759 0)
(0.0999084846 0.000352711336 0)
(0.0998466077 0.000441638596 0)
(0.0997710558 0.000512554255 0)
(0.0996849755 0.000559757864 0)
(0.0995923512 0.000580391509 0)
(0.0994976208 0.000574646876 0)
(0.0994050942 0.000544979764 0)
(0.0993186391 0.000494731491 0)
(0.0992416332 0.000427513431 0)
(0.0991768824 0.000348033855 0)
(0.0991262852 0.000263544298 0)
(0.0990902919 0.000184326252 0)
(0.0990674238 0.000122313547 0)
(0.0990541974 8.82622329e-05 0)
(0.0990457039 8.86275037e-05 0)
(0.0990363891 0.000123730259 0)
(0.0990207183 0.00018781708 0)
(0.0989941289 0.000270591266 0)
(0.0989539941 0.000359572745 0)
(0.0988999642 0.00044254051 0)
(0.0988337218 0.000509418325 0)
(0.0987584704 0.000553285181 0)
(0.0986783402 0.000570534868 0)
(0.0985978244 0.00056047636 0)
(0.0985213385 0.000524740251 0)
(0.0984529221 0.000466782632 0)
(0.0983960231 0.000391651978 0)
(0.0983532808 0.000306003565 0)
(0.0983262555 0.000218135581 0)
(0.0983151048 0.000137694933 0)
(0.0983182763 7.47894126e-05 0)
(0.0983324697 3.84930806e-05 0)
(0.0983531444 3.49968709e-05 0)
(0.0983752872 6.55227371e-05 0)
(0.0983938162 0.000125669549 0)
(0.0984042745 0.000205907424 0)
(0.0984039467 0.000293841446 0)
(0.0983923807 0.000376942254 0)
(0.0983711905 0.000445380569 0)
(0.0983433806 0.000494057201 0)
(0.0983124224 0.000523156532 0)
(0.0982813487 0.000537136018 0)
(0.0982521245 0.000542636697 0)
(0.0982254381 0.000546156236 0)
(0.0982008954 0.000552310615 0)
(0.0981774579 0.000563152891 0)
(0.0981539187 0.000578517396 0)
(0.0981292487 0.00059696655 0)
(0.0981027442 0.00061679637 0)
(0.0980740038 0.000636702077 0)
(0.0980428179 0.000655980641 0)
(0.0980090558 0.000674385879 0)
(0.0979725993 0.00069185316 0)
(0.0979333296 0.000708274938 0)
(0.0978911482 0.000723404119 0)
(0.0978460063 0.000736867843 0)
(0.0977979243 0.000748231434 0)
(0.0977469989 0.000757058664 0)
(0.0976934007 0.000762944495 0)
(0.0976373685 0.000765522787 0)
(0.0975792026 0.00076446249 0)
(0.0975192608 0.000759463759 0)
(0.097457954 0.00075025841 0)
(0.0973957423 0.000736613724 0)
(0.0973331297 0.000718336792 0)
(0.0972706602 0.000695277385 0)
(0.0972089116 0.000667328805 0)
(0.097148491 0.000634427147 0)
(0.0970900292 0.000596549617 0)
(0.0970341753 0.000553712584 0)
(0.0969815916 0.00050596968 0)
(0.0969329486 0.000453410215 0)
(0.0968889205 0.000396158082 0)
(0.09685018 0.000334371074 0)
(0.0968173953 0.000268240353 0)
(0.0967912236 0.000197989343 0)
(0.0967722925 0.000123863229 0)
(0.0967613668 4.61579101e-05 0)
(0.096759189 -3.45928053e-05 0)
(0.0967661917 -0.000117862734 0)
(0.0967828342 -0.000203269512 0)
(0.0968096537 -0.00029031999 0)
(0.0968470544 -0.000378424191 0)
(0.096895327 -0.000466938351 0)
(0.096954666 -0.000555159592 0)
(0.097025153 -0.000642323417 0)
(0.0971067422 -0.000727616009 0)
(0.0971992498 -0.000810190492 0)
(0.0973023454 -0.00088918425 0)
(0.0974155472 -0.000963738929 0)
(0.0975382228 -0.00103302249 0)
(0.097669594 -0.00109625172 0)
(0.0978087464 -0.00115271455 0)
(0.0979546444 -0.00120179128 0)
(0.0981061494 -0.00124297371 0)
(0.0982620426 -0.00127588092 0)
(0.0984210503 -0.00130027092 0)
(0.0985818719 -0.0013160471 0)
(0.0987432077 -0.00132325923 0)
(0.0989037873 -0.00132209899 0)
(0.099062396 -0.00131289049 0)
(0.0992178974 -0.00129607652 0)
(0.0993692533 -0.00127220156 0)
(0.099515539 -0.00124189249 0)
(0.0996559532 -0.00120583816 0)
(0.0997898242 -0.00116476867 0)
(0.0999166116 -0.00111943535 0)
(0.100035904 -0.00107059213 0)
(0.100147412 -0.00101897887 0)
(0.100250964 -0.000965306865 0)
(0.100346491 -0.000910246936 0)
(0.10043402 -0.000854419948 0)
(0.100513659 -0.000798389639 0)
(0.100585587 -0.000742657445 0)
(0.100650043 -0.000687659264 0)
(0.100707317 -0.000633765823 0)
(0.10075774 -0.000581287179 0)
(0.100801676 -0.000530478732 0)
(0.100839507 -0.000481546197 0)
(0.100871628 -0.00043464908 0)
(0.100898439 -0.00038990422 0)
(0.100920336 -0.000347388528 0)
(0.10093771 -0.000307143506 0)
(0.100950941 -0.000269182293 0)
(0.100960395 -0.000233494676 0)
(0.100966425 -0.00020004915 0)
(0.100969366 -0.000168788956 0)
(0.10096954 -0.000139641128 0)
(0.100967251 -0.000112523928 0)
(0.100962787 -8.73503428e-05 0)
(0.10095644 -6.40317523e-05 0)
(0.100948502 -4.2479671e-05 0)
(0.1009392 -2.26140523e-05 0)
(0.100928623 -4.43781424e-06 0)
(0.100916859 1.20589641e-05 0)
(0.100904129 2.68216578e-05 0)
(0.100890627 3.99350254e-05 0)
(0.10087645 5.15505561e-05 0)
(0.100861681 6.17897772e-05 0)
(0.10084639 7.07708059e-05 0)
(0.100830653 7.8616049e-05 0)
(0.100814549 8.54381852e-05 0)
(0.100798163 9.13347752e-05 0)
(0.100781572 9.63913626e-05 0)
(0.100764846 0.000100686199 0)
(0.100748046 0.000104291646 0)
(0.100731228 0.000107273556 0)
(0.10071444 0.000109691589 0)
(0.100697728 0.000111599838 0)
(0.100681132 0.000113046799 0)
(0.100664691 0.000114075455 0)
(0.10064844 0.00011472395 0)
(0.100632409 0.000115026442 0)
(0.100616624 0.000115013831 0)
(0.100601109 0.00011471437 0)
(0.100585883 0.000114154176 0)
(0.100570961 0.00011335757 0)
(0.100556356 0.000112347247 0)
(0.100542079 0.000111144356 0)
(0.100528138 0.000109768536 0)
(0.10051454 0.000108237933 0)
(0.10050129 0.000106569228 0)
(0.100488392 0.000104777667 0)
(0.10047585 0.000102877109 0)
(0.100463667 0.000100880089 0)
(0.100451844 9.87978919e-05 0)
(0.100440382 9.66406378e-05 0)
(0.100429283 9.44173695e-05 0)
(0.100418546 9.2136141e-05 0)
(0.100408172 8.98041045e-05 0)
(0.10039816 8.74275964e-05 0)
(0.100388508 8.50122184e-05 0)
(0.100379217 8.25629083e-05 0)
(0.100370284 8.00839995e-05 0)
(0.100361707 7.75792624e-05 0)
(0.100353486 7.5051925e-05 0)
(0.100345619 7.25046775e-05 0)
(0.100338103 6.99396427e-05 0)
(0.100330937 6.73584004e-05 0)
(0.100324118 6.47616449e-05 0)
(0.100317651 6.2150499e-05 0)
(0.100311506 5.95196633e-05 0)
(0.100305783 5.68899447e-05 0)
(0.100300128 5.41525247e-05 0)
(0.100295822 5.18015043e-05 0)
(0.100288685 4.75328189e-05 0)
(0.0999998907 1.85273472e-05 0)
(0.0999959951 8.32227831e-05 0)
(0.0999824104 0.000178780235 0)
(0.0999534933 0.000292645628 0)
(0.0999073234 0.000408454088 0)
(0.099845055 0.000512983406 0)
(0.0997690585 0.000596683028 0)
(0.0996824526 0.000652976993 0)
(0.0995891808 0.000678484547 0)
(0.0994936402 0.000673267302 0)
(0.099400109 0.000639958565 0)
(0.0993124307 0.000582221396 0)
(0.0992339671 0.000504074372 0)
(0.0991675465 0.000410868195 0)
(0.0991151699 0.000310983363 0)
(0.0990774947 0.000216450511 0)
(0.0990533481 0.000141378051 0)
(0.0990394595 9.85984286e-05 0)
(0.0990306658 9.6061285e-05 0)
(0.0990208972 0.000134452887 0)
(0.0990045239 0.000207083795 0)
(0.0989773154 0.000301847763 0)
(0.098936914 0.000404126299 0)
(0.0988829892 0.000499642591 0)
(0.0988170845 0.000576621831 0)
(0.0987422154 0.000626944049 0)
(0.0986623487 0.000646338839 0)
(0.0985818827 0.000633929715 0)
(0.0985052143 0.000591526564 0)
(0.0984364208 0.000523025666 0)
(0.0983790175 0.000434135867 0)
(0.0983357178 0.000332420676 0)
(0.0983081574 0.000227393069 0)
(0.0982966252 0.00013023358 0)
(0.0982999277 5.27824112e-05 0)
(0.0983154024 5.59917979e-06 0)
(0.0983384987 -4.19391394e-06 0)
(0.0983634006 2.53193312e-05 0)
(0.0983844342 8.91320703e-05 0)
(0.0983972549 0.000176832052 0)
(0.0983994741 0.000274166247 0)
(0.098390595 0.000366334036 0)
(0.0983720625 0.000441582565 0)
(0.0983467537 0.00049369735 0)
(0.0983180899 0.000522757761 0)
(0.0982891209 0.000534010774 0)
(0.0982618626 0.0005354035 0)
(0.0982370513 0.000534781425 0)
(0.0982143104 0.000537762494 0)
(0.0981925822 0.000546876531 0)
(0.0981706119 0.000561953253 0)
(0.0981473093 0.00058125808 0)
(0.0981219101 0.000602715933 0)
(0.0980939595 0.000624731195 0)
(0.0980632038 0.000646444729 0)
(0.0980294765 0.000667562621 0)
(0.0979926294 0.000688020048 0)
(0.0979525206 0.000707703653 0)
(0.097909035 0.000726329702 0)
(0.0978621149 0.00074345862 0)
(0.0978117809 0.000758572472 0)
(0.0977581387 0.00077114908 0)
(0.0977013772 0.000780702718 0)
(0.0976417618 0.000786793859 0)
(0.0975796272 0.000789024364 0)
(0.0975153729 0.000787032199 0)
(0.0974494568 0.000780491276 0)
(0.0973823899 0.000769115329 0)
(0.0973147287 0.000752662624 0)
(0.0972470684 0.000730939221 0)
(0.0971800343 0.000703800266 0)
(0.0971142761 0.000671149783 0)
(0.0970504621 0.000632939547 0)
(0.0969892755 0.000589167463 0)
(0.096931412 0.000539875641 0)
(0.0968775772 0.000485148436 0)
(0.0968284842 0.000425110864 0)
(0.0967848503 0.00035992826 0)
(0.0967473944 0.000289807898 0)
(0.0967168339 0.000215002004 0)
(0.0966938811 0.000135811187 0)
(0.0966791616 5.2595651e-05 0)
(0.0966732939 -3.43349891e-05 0)
(0.0966770291 -0.000124590905 0)
(0.0966910428 -0.000217648133 0)
(0.0967158541 -0.000312941217 0)
(0.0967519235 -0.00040983061 0)
(0.0967996358 -0.0005075859 0)
(0.0968592655 -0.000605394577 0)
(0.09693096 -0.000702369905 0)
(0.097014727 -0.000797560962 0)
(0.0971104198 -0.000889967567 0)
(0.0972177251 -0.000978559598 0)
(0.0973361549 -0.00106230095 0)
(0.0974650428 -0.0011401776 0)
(0.0976035475 -0.00121122806 0)
(0.0977506614 -0.00127457422 0)
(0.0979052272 -0.00132945075 0)
(0.0980659601 -0.00137523074 0)
(0.0982314765 -0.0014114463 0)
(0.0984003255 -0.00143780288 0)
(0.0985710248 -0.00145418667 0)
(0.0987420956 -0.001460665 0)
(0.0989120981 -0.00145747987 0)
(0.0990796626 -0.0014450352 0)
(0.0992435182 -0.00142387883 0)
(0.0994025155 -0.00139468024 0)
(0.0995556436 -0.00135820569 0)
(0.0997020415 -0.00131529194 0)
(0.0998410033 -0.00126681996 0)
(0.0999719789 -0.00121368986 0)
(0.100094569 -0.0011567979 0)
(0.100208516 -0.00109701633 0)
(0.100313695 -0.00103517635 0)
(0.100410096 -0.000972054493 0)
(0.100497817 -0.00090836238 0)
(0.100577039 -0.000844739628 0)
(0.100648021 -0.000781749755 0)
(0.100711081 -0.000719878832 0)
(0.100766584 -0.000659536895 0)
(0.100814932 -0.000601061898 0)
(0.100856553 -0.00054472507 0)
(0.100891891 -0.000490736658 0)
(0.100921392 -0.000439251734 0)
(0.100945503 -0.000390376391 0)
(0.100964662 -0.000344173506 0)
(0.100979293 -0.000300667892 0)
(0.100989807 -0.000259851946 0)
(0.100996596 -0.000221691137 0)
(0.101000033 -0.00018612878 0)
(0.101000471 -0.000153090875 0)
(0.100998245 -0.000122493115 0)
(0.100993671 -9.42461054e-05 0)
(0.100987038 -6.82579013e-05 0)
(0.100978597 -4.44261682e-05 0)
(0.100968559 -2.26512996e-05 0)
(0.100957083 -2.79816575e-06 0)
(0.100944442 1.52530014e-05 0)
(0.100930931 3.15547108e-05 0)
(0.100916683 4.62064587e-05 0)
(0.100901773 5.92948762e-05 0)
(0.100886269 7.09149597e-05 0)
(0.100870254 8.11616735e-05 0)
(0.100853811 9.0133901e-05 0)
(0.100837017 9.79357634e-05 0)
(0.100819946 0.000104668981 0)
(0.10080267 0.000110428427 0)
(0.100785259 0.000115301307 0)
(0.100767775 0.000119367884 0)
(0.100750279 0.000122702332 0)
(0.100732829 0.000125372836 0)
(0.100715476 0.000127441808 0)
(0.100698267 0.000128966591 0)
(0.100681239 0.000130000064 0)
(0.100664424 0.000130590905 0)
(0.100647849 0.00013078361 0)
(0.100631537 0.000130618552 0)
(0.100615505 0.000130132194 0)
(0.10059977 0.000129357422 0)
(0.100584346 0.000128323923 0)
(0.100569245 0.000127058545 0)