/*--------------------------------*- C++ -*----------------------------------*\
| =========                 |                                                 |
| \\      /  F ield         | OpenFOAM: The Open Source CFD Toolbox           |
|  \\    /   O peration     | Version:  v2012                                 |
|   \\  /    A nd           | Website:  www.openfoam.com                      |
|    \\/     M anipulation  |                                                 |
\*---------------------------------------------------------------------------*/
FoamFile
{
    version     2.0;
    format      ascii;
    class       surfaceVectorField;
    location    "2.49";
    object      Uf;
}
// * * * * * * * * * * * * * * * * * * * * * * * * * * * * * * * * * * * * * //

dimensions      [0 1 -1 0 0 0 0];


internalField   nonuniform List<vector> 
56481
(
(0.0999961947 2.04959747e-05 0)
(0.0999997633 1.21183088e-05 0)
(0.099982959 4.79220865e-05 0)
(0.0999945625 4.59982334e-05 0)
(0.0999570836 8.11366616e-05 0)
(0.0999787056 9.07260787e-05 0)
(0.0999169107 0.000116891421 0)
(0.0999477356 0.000141904629 0)
(0.0998626688 0.00015124462 0)
(0.0999007958 0.000193500235 0)
(0.0997960184 0.000180534804 0)
(0.0998394082 0.000239914333 0)
(0.0997196212 0.000201866507 0)
(0.0997659535 0.000276656919 0)
(0.0996367913 0.000213395372 0)
(0.0996834729 0.00030055505 0)
(0.0995511232 0.000214537399 0)
(0.0995956976 0.00031004504 0)
(0.0994661232 0.000205885586 0)
(0.0995066128 0.000305303219 0)
(0.0993849676 0.000188764055 0)
(0.0994199368 0.000287800831 0)
(0.0993104328 0.000164790711 0)
(0.0993389168 0.000259527961 0)
(0.0992448828 0.000135875477 0)
(0.0992663692 0.000222639766 0)
(0.0991901226 0.000104623098 0)
(0.0992046598 0.000179890502 0)
(0.0991470424 7.46444896e-05 0)
(0.0991554089 0.000135383153 0)
(0.0991151651 5.02936806e-05 0)
(0.0991189749 9.47724326e-05 0)
(0.0990923355 3.58074573e-05 0)
(0.0990939905 6.44571358e-05 0)
(0.0990747693 3.41418503e-05 0)
(0.0990772541 5.00624532e-05 0)
(0.0990575999 4.6112621e-05 0)
(0.0990641885 5.47293784e-05 0)
(0.0990360405 7.03684984e-05 0)
(0.0990495672 7.80838371e-05 0)
(0.0990064314 0.000103832138 0)
(0.0990283736 0.00011666444 0)
(0.0989667529 0.000142178969 0)
(0.0989969688 0.000164879622 0)
(0.0989167325 0.000180545716 0)
(0.098953813 0.000215989384 0)
(0.0988576158 0.000214416851 0)
(0.0988992479 0.000263385381 0)
(0.0987917368 0.000240241257 0)
(0.0988350425 0.000301687714 0)
(0.0987220542 0.000255651479 0)
(0.098764083 0.000327189465 0)
(0.0986517463 0.000259495969 0)
(0.0986899357 0.000337868085 0)
(0.0985839051 0.000251808597 0)
(0.0986163112 0.000333262071 0)
(0.0985213457 0.000233719133 0)
(0.0985467034 0.0003142826 0)
(0.0984664886 0.000207331578 0)
(0.0984842244 0.000283014034 0)
(0.0984212517 0.000175608872 0)
(0.0984314926 0.000242585508 0)
(0.0983869307 0.000142251996 0)
(0.0983904773 0.000197110867 0)
(0.0983641734 0.00011144799 0)
(0.0983623548 0.000151603659 0)
(0.0983520248 8.75318461e-05 0)
(0.0983471493 0.000111563272 0)
(0.0983485831 7.44797829e-05 0)
(0.0983434128 8.2472403e-05 0)
(0.098350918 7.51962548e-05 0)
(0.0983483626 6.93825029e-05 0)
(0.0983554004 9.08830061e-05 0)
(0.0983582097 7.53961596e-05 0)
(0.0983585119 0.00012059347 0)
(0.0983686461 0.000100635538 0)
(0.0983572817 0.000161183717 0)
(0.0983755283 0.000142339666 0)
(0.098349767 0.000207875729 0)
(0.0983756097 0.000195101997 0)
(0.0983353392 0.00025529623 0)
(0.0983671266 0.000251992776 0)
(0.098314667 0.00029866147 0)
(0.0983500393 0.000306119975 0)
(0.0982893874 0.000334757026 0)
(0.0983258465 0.000352155746 0)
(0.098261572 0.000362428548 0)
(0.0982970297 0.000387362572 0)
(0.0982331611 0.000382462916 0)
(0.0982663105 0.000411816995 0)
(0.0982055347 0.000396955346 0)
(0.0982359555 0.000427822131 0)
(0.0981793242 0.000408432506 0)
(0.0982073315 0.000438790498 0)
(0.0981544702 0.000419057032 0)
(0.098180803 0.000448041108 0)
(0.0981304512 0.000430157117 0)
(0.0981559335 0.000457924534 0)
(0.098106565 0.000442156169 0)
(0.0981318542 0.000469495102 0)
(0.0980821583 0.000454809847 0)
(0.0981076332 0.000482696173 0)
(0.0980567482 0.00046756624 0)
(0.0980825238 0.000496836611 0)
(0.0980300358 0.000479874149 0)
(0.0980560509 0.000511086766 0)
(0.0980018545 0.000491344889 0)
(0.0980279693 0.000524801716 0)
(0.0979721026 0.000501767539 0)
(0.0979981652 0.000537617325 0)
(0.0979406952 0.000511038478 0)
(0.0979665668 0.000549379751 0)
(0.0979075481 0.000519076612 0)
(0.0979330974 0.000560014987 0)
(0.097872585 0.000525769858 0)
(0.0978976715 0.000569424904 0)
(0.0978357558 0.000530962989 0)
(0.0978602156 0.000577444822 0)
(0.0977970513 0.000534472988 0)
(0.097820693 0.000583852893 0)
(0.0977565122 0.000536111927 0)
(0.0977791198 0.000588402301 0)
(0.0977142308 0.000535703959 0)
(0.0977355701 0.000590850667 0)
(0.0976703495 0.000533092911 0)
(0.0976901743 0.000590975947 0)
(0.0976250586 0.000528143354 0)
(0.0976431155 0.000588580403 0)
(0.0975785947 0.000520739456 0)
(0.0975946259 0.000583489163 0)
(0.0975312388 0.000510784388 0)
(0.0975449849 0.000575548722 0)
(0.0974833139 0.000498200966 0)
(0.0974945166 0.000564627433 0)
(0.0974351824 0.00048293317 0)
(0.0974435871 0.000550617569 0)
(0.0973872423 0.000464947978 0)
(0.0973926016 0.000533437776 0)
(0.0973399233 0.000444237228 0)
(0.0973419999 0.000513035112 0)
(0.0972936835 0.000420819417 0)
(0.097292253 0.000489386402 0)
(0.0972490068 0.000394741032 0)
(0.0972438593 0.000462498895 0)
(0.0972064019 0.000366076968 0)
(0.0971973417 0.000432410061 0)
(0.0971664015 0.000334929233 0)
(0.0971532455 0.000399186374 0)
(0.0971295627 0.000301423127 0)
(0.0971121361 0.000362920224 0)
(0.097096468 0.000265701007 0)
(0.097074596 0.000323724518 0)
(0.0970677131 0.000227912272 0)
(0.0970412199 0.000281738816 0)
(0.0970438869 0.000188203322 0)
(0.0970126066 0.000237122771 0)
(0.0970255463 0.000146718946 0)
(0.0969893428 0.000190049656 0)
(0.0970131829 0.000103616311 0)
(0.0969719745 0.000140721159 0)
(0.0970071693 5.90963756e-05 0)
(0.0969610115 8.94020191e-05 0)
(0.0970076673 1.35860927e-05 0)
(0.0969569605 3.64901291e-05 0)
(0.0970154552 -3.23545493e-05 0)
(0.0969603288 -1.78927974e-05 0)
(0.0970319262 -7.8664575e-05 0)
(0.0969718636 -7.33864225e-05 0)
(0.0970571555 -0.000125527402 0)
(0.0969922295 -0.000129648442 0)
(0.0970912599 -0.000172790267 0)
(0.0970216362 -0.000186608177 0)
(0.0971343246 -0.000220156579 0)
(0.0970602224 -0.000243919012 0)
(0.0971864067 -0.000267317595 0)
(0.0971081457 -0.000301231405 0)
(0.0972474935 -0.000313938105 0)
(0.0971654654 -0.000358146136 0)
(0.0973174846 -0.00035965866 0)
(0.097232138 -0.000414216247 0)
(0.097396185 -0.000404106436 0)
(0.0973080309 -0.000468972103 0)
(0.0974833004 -0.000446896857 0)
(0.0973929083 -0.000521928054 0)
(0.0975784373 -0.000487635993 0)
(0.0974864247 -0.000572587233 0)
(0.0976811075 -0.000525928489 0)
(0.0975881292 -0.000620451905 0)
(0.0977907359 -0.000561389321 0)
(0.0976974713 -0.000665036391 0)
(0.0979066686 -0.000593657607 0)
(0.0978138072 -0.000705881198 0)
(0.0980281818 -0.00062241069 0)
(0.0979364087 -0.000742567721 0)
(0.0981544908 -0.000647376276 0)
(0.0980644725 -0.000774732025 0)
(0.0982847599 -0.000668341183 0)
(0.0981971312 -0.000802076257 0)
(0.0984181137 -0.00068515644 0)
(0.098333466 -0.000824377017 0)
(0.0985536502 -0.000697739171 0)
(0.0984725206 -0.000841490596 0)
(0.0986904555 -0.000706072113 0)
(0.0986133182 -0.000853355224 0)
(0.0988276192 -0.000710201507 0)
(0.0987548783 -0.000859990712 0)
(0.0989642503 -0.00071023377 0)
(0.0988962349 -0.000861495778 0)
(0.0990994918 -0.000706331048 0)
(0.0990364534 -0.000858043277 0)
(0.0992325343 -0.000698705658 0)
(0.0991746462 -0.000849873566 0)
(0.0993626266 -0.000687613449 0)
(0.0993099863 -0.000837286248 0)
(0.0994890857 -0.000673346271 0)
(0.0994417183 -0.000820630635 0)
(0.0996113027 -0.000656223804 0)
(0.0995691665 -0.000800295358 0)
(0.0997287477 -0.000636585139 0)
(0.099691741 -0.000776697561 0)
(0.0998409718 -0.000614780451 0)
(0.0998089406 -0.000750272141 0)
(0.0999476074 -0.000591163127 0)
(0.0999203537 -0.000721461438 0)
(0.100048367 -0.000566082551 0)
(0.100025656 -0.000690705716 0)
(0.100143037 -0.000539877681 0)
(0.10012461 -0.000658434616 0)
(0.100231475 -0.000512871379 0)
(0.100217053 -0.000625059657 0)
(0.100313602 -0.000485365467 0)
(0.1003029 -0.000590967583 0)
(0.100389386 -0.000457634673 0)
(0.100382125 -0.000556515168 0)
(0.100458843 -0.000429917756 0)
(0.100454755 -0.000522021806 0)
(0.100522039 -0.000402412354 0)
(0.100520866 -0.000487758809 0)
(0.100579107 -0.00037528053 0)
(0.100580594 -0.000453946261 0)
(0.100630258 -0.000348662338 0)
(0.100634141 -0.000420759622 0)
(0.100675767 -0.000322687557 0)
(0.100681766 -0.000388347811 0)
(0.100715896 -0.000297472174 0)
(0.100723757 -0.000356846343 0)
(0.100750879 -0.000273096106 0)
(0.100760402 -0.000326353232 0)
(0.100780998 -0.000249598626 0)
(0.100791995 -0.000297005758 0)
(0.100806572 -0.00022700632 0)
(0.100818846 -0.00026888436 0)
(0.100827921 -0.000205348439 0)
(0.100841275 -0.000242015555 0)
(0.100845359 -0.000184650405 0)
(0.100859606 -0.000216422018 0)
(0.100859186 -0.000164927634 0)
(0.100874157 -0.000192114786 0)
(0.100869691 -0.000146178986 0)
(0.100885242 -0.00016909021 0)
(0.100877144 -0.000128384214 0)
(0.100893163 -0.000147324666 0)
(0.10088181 -0.000111509618 0)
(0.100898203 -0.000126787705 0)
(0.100883959 -9.55144067e-05 0)
(0.100900636 -0.000107443379 0)
(0.100883861 -8.03559579e-05 0)
(0.100900733 -8.92510803e-05 0)
(0.100881795 -6.59956041e-05 0)
(0.100898763 -7.21711049e-05 0)
(0.100878048 -5.24061075e-05 0)
(0.100894994 -5.61758582e-05 0)
(0.100872931 -3.95904733e-05 0)
(0.100889688 -4.12656969e-05 0)
(0.100866764 -2.7611061e-05 0)
(0.100883087 -2.74680076e-05 0)
(0.100859829 -1.66299179e-05 0)
(0.100875372 -1.48345165e-05 0)
(0.100852347 -6.88473935e-06 0)
(0.100866715 -3.50571493e-06 0)
(0.100843988 1.50815367e-06 0)
(0.100857299 6.94841491e-06 0)
(0.10083434 8.69493722e-06 0)
(0.100847088 1.60508576e-05 0)
(0.100823508 1.49394771e-05 0)
(0.10083591 2.38655209e-05 0)
(0.100811703 2.04410092e-05 0)
(0.100823765 3.06942078e-05 0)
(0.100799085 2.53140182e-05 0)
(0.100810807 3.67016087e-05 0)
(0.100785793 2.96305117e-05 0)
(0.100797193 4.19862231e-05 0)
(0.100771948 3.3448309e-05 0)
(0.100783055 4.66213199e-05 0)
(0.10075766 3.68217975e-05 0)
(0.100768489 5.06732888e-05 0)
(0.100743025 3.98007207e-05 0)
(0.100753582 5.42048136e-05 0)
(0.100728134 4.24270069e-05 0)
(0.100738418 5.72701969e-05 0)
(0.100713069 4.47350761e-05 0)
(0.100723078 5.99148844e-05 0)
(0.100697904 4.67530828e-05 0)
(0.100707633 6.2178143e-05 0)
(0.100682705 4.85034532e-05 0)
(0.100692149 6.40940077e-05 0)
(0.100667528 5.00038391e-05 0)
(0.10067668 6.56913888e-05 0)
(0.100652423 5.12687942e-05 0)
(0.100661278 6.69950627e-05 0)
(0.10063743 5.23113819e-05 0)
(0.100645984 6.80269764e-05 0)
(0.100622584 5.31442747e-05 0)
(0.100630834 6.88071582e-05 0)
(0.100607911 5.37803843e-05 0)
(0.10061586 6.93543182e-05 0)
(0.100593436 5.42331126e-05 0)
(0.100601085 6.96862892e-05 0)
(0.100579178 5.45162986e-05 0)
(0.100586534 6.98202826e-05 0)
(0.100565155 5.46439791e-05 0)
(0.100572224 6.97729574e-05 0)
(0.100551382 5.46300798e-05 0)
(0.100558171 6.95603714e-05 0)
(0.100537874 5.44881016e-05 0)
(0.10054439 6.91978755e-05 0)
(0.100524643 5.423083e-05 0)
(0.100530894 6.8699984e-05 0)
(0.100511701 5.38700902e-05 0)
(0.100517694 6.80802412e-05 0)
(0.100499059 5.34165719e-05 0)
(0.100504799 6.73511065e-05 0)
(0.100486726 5.287974e-05 0)
(0.100492219 6.65238797e-05 0)
(0.100474709 5.22678277e-05 0)
(0.100479962 6.56086777e-05 0)
(0.100463017 5.15879092e-05 0)
(0.100468032 6.46144633e-05 0)
(0.100451655 5.08460343e-05 0)
(0.100456438 6.35491241e-05 0)
(0.100440628 5.00474089e-05 0)
(0.100445181 6.24195908e-05 0)
(0.100429938 4.91965972e-05 0)
(0.100434267 6.12319826e-05 0)
(0.100419589 4.8297718e-05 0)
(0.100423696 5.99917598e-05 0)
(0.100409581 4.73546145e-05 0)
(0.100413471 5.87038669e-05 0)
(0.100399917 4.6370983e-05 0)
(0.100403593 5.73728542e-05 0)
(0.100390594 4.53504516e-05 0)
(0.100394061 5.60029683e-05 0)
(0.100381615 4.42966072e-05 0)
(0.100384876 5.4598206e-05 0)
(0.100372978 4.32129819e-05 0)
(0.100376037 5.31623344e-05 0)
(0.100364682 4.21030022e-05 0)
(0.100367544 5.16988805e-05 0)
(0.100356729 4.09699182e-05 0)
(0.100359395 5.02110936e-05 0)
(0.100349118 3.98167163e-05 0)
(0.100351592 4.87018909e-05 0)
(0.100341849 3.86460435e-05 0)
(0.100344133 4.71737729e-05 0)
(0.100334923 3.7460041e-05 0)
(0.10033702 4.56287601e-05 0)
(0.100328343 3.62604872e-05 0)
(0.100330251 4.40680521e-05 0)
(0.10032211 3.50471609e-05 0)
(0.100323835 4.24926361e-05 0)
(0.10031623 3.3823739e-05 0)
(0.100317746 4.08985699e-05 0)
(0.100310708 3.25662598e-05 0)
(0.100312086 3.92958791e-05 0)
(0.100305565 3.13619125e-05 0)
(0.100306523 3.76113071e-05 0)
(0.100300785 2.97424924e-05 0)
(0.1003023 3.61293013e-05 0)
(0.100295429 3.33896321e-05 0)
(0.0999990245 3.4980327e-05 0)
(0.0999998561 1.32416648e-05 0)
(0.0999902281 8.43694407e-05 0)
(0.0999956461 5.61273173e-05 0)
(0.0999685289 0.000145313779 0)
(0.0999814525 0.00011571307 0)
(0.0999310457 0.000210741572 0)
(0.0999519706 0.000185067158 0)
(0.0998774539 0.000273053833 0)
(0.0999057556 0.000255211913 0)
(0.0998093745 0.000325854728 0)
(0.0998442598 0.000318308839 0)
(0.0997297286 0.00036441145 0)
(0.0997699393 0.000368370323 0)
(0.0996422636 0.000385860499 0)
(0.0996858959 0.000401272352 0)
(0.0995511206 0.000389397643 0)
(0.0995959795 0.000414997533 0)
(0.099460403 0.000376053428 0)
(0.0995043808 0.000409765946 0)
(0.0993738694 0.000347936312 0)
(0.099415064 0.000387445575 0)
(0.0992948301 0.000307548747 0)
(0.0993315162 0.000350542886 0)
(0.0992261174 0.000257861249 0)
(0.0992567739 0.000301763418 0)
(0.0991699035 0.000203072353 0)
(0.099193406 0.000244621702 0)
(0.099127278 0.000149225326 0)
(0.0991432178 0.00018446706 0)
(0.099097735 0.000103845146 0)
(0.0991067129 0.000128791695 0)
(0.0990788821 7.44611996e-05 0)
(0.0990826006 8.61664294e-05 0)
(0.0990666835 6.66168842e-05 0)
(0.0990676353 6.41093856e-05 0)
(0.0990560489 8.22122306e-05 0)
(0.0990569782 6.69752971e-05 0)
(0.0990415574 0.00011899057 0)
(0.0990450585 9.47710091e-05 0)
(0.0990185004 0.000171290393 0)
(0.0990266118 0.000143214849 0)
(0.0989837643 0.000231374669 0)
(0.0989976488 0.00020487876 0)
(0.0989361712 0.00029092136 0)
(0.0989561374 0.000270793597 0)
(0.0988764912 0.000342490135 0)
(0.0989021 0.000332107857 0)
(0.0988071636 0.000380511336 0)
(0.098837261 0.000381519389 0)
(0.0987317432 0.00040158361 0)
(0.098764605 0.000414037226 0)
(0.09865429 0.00040433611 0)
(0.0986879061 0.000427056668 0)
(0.0985788924 0.00038914263 0)
(0.0986112174 0.000420083513 0)
(0.0985093523 0.000357828117 0)
(0.0985384597 0.000394359075 0)
(0.098448983 0.000313462861 0)
(0.0984731757 0.000352530172 0)
(0.0984004488 0.000260284776 0)
(0.0984183692 0.000298473346 0)
(0.0983655721 0.000203672759 0)
(0.098376329 0.000237271895 0)
(0.0983450861 0.000149934547 0)
(0.0983484038 0.000175193583 0)
(0.0983383054 0.000105854395 0)
(0.0983347194 0.000119371432 0)
(0.0983429111 7.78957266e-05 0)
(0.0983339111 7.71688106e-05 0)
(0.098355341 7.09932444e-05 0)
(0.0983431143 5.50693264e-05 0)
(0.0983711334 8.72989795e-05 0)
(0.0983582152 5.7210909e-05 0)
(0.0983853426 0.000125345335 0)
(0.0983743366 8.4273491e-05 0)
(0.0983935399 0.000180080723 0)
(0.0983866726 0.000132900319 0)
(0.0983926632 0.000243887256 0)
(0.0983913988 0.000196111576 0)
(0.0983815394 0.000308277008 0)
(0.0983863332 0.000264801922 0)
(0.0983609571 0.000365796362 0)
(0.0983712384 0.000329820821 0)
(0.0983332556 0.000411589443 0)
(0.0983476813 0.000384054415 0)
(0.0983015631 0.000444150076 0)
(0.0983184527 0.000423856969 0)
(0.0982689257 0.000465075063 0)
(0.0982867254 0.000449399486 0)
(0.0982375965 0.000477992773 0)
(0.0982552264 0.000463898237 0)
(0.0982086763 0.000487118421 0)
(0.0982256705 0.00047209248 0)
(0.0981821541 0.00049596792 0)
(0.0981985917 0.000478581805 0)
(0.0981572474 0.000506621953 0)
(0.0981735455 0.000486605061 0)
(0.0981328578 0.000519652705 0)
(0.0981495325 0.000497580036 0)
(0.09810796 0.00053455041 0)
(0.0981254429 0.000511366372 0)
(0.0980818148 0.000550338814 0)
(0.0981003687 0.000526943147 0)
(0.0980540003 0.00056608866 0)
(0.0980737233 0.000543115626 0)
(0.0980243234 0.000581176141 0)
(0.0980452027 0.000558975087 0)
(0.0979927001 0.000595292796 0)
(0.0980146704 0.000574032087 0)
(0.0979590663 0.000608314083 0)
(0.097982048 0.000588109568 0)
(0.097923344 0.000620149007 0)
(0.0979472539 0.000601149716 0)
(0.0978854502 0.000630647217 0)
(0.0979101951 0.000613060159 0)
(0.0978453247 0.000639578705 0)
(0.0978707903 0.000623649955 0)
(0.0978029555 0.000646660473 0)
(0.0978289984 0.000632641634 0)
(0.0977583919 0.000651595337 0)
(0.0977848378 0.000639717971 0)
(0.0977117459 0.00065410029 0)
(0.097738393 0.000644564229 0)
(0.0976631884 0.000653918716 0)
(0.0976898119 0.000646890644 0)
(0.0976129441 0.000650821736 0)
(0.0976393013 0.000646437465 0)
(0.0975612879 0.000644606248 0)
(0.0975871215 0.000642972148 0)
(0.0975085418 0.000635094328 0)
(0.0975335837 0.000636286618 0)
(0.097455073 0.000622134895 0)
(0.0974790464 0.00062619757 0)
(0.0974012903 0.000605606486 0)
(0.0974239132 0.000612549134 0)
(0.0973476407 0.000585419712 0)
(0.0973686277 0.000595216045 0)
(0.0972946054 0.000561518648 0)
(0.09731367 0.000574106068 0)
(0.0972426956 0.000533881102 0)
(0.0972595515 0.000549161361 0)
(0.0971924487 0.000502517905 0)
(0.0972068105 0.000520358933 0)
(0.0971444248 0.000467471396 0)
(0.097156009 0.000487710344 0)
(0.0970992023 0.00042881315 0)
(0.0971077283 0.000451260796 0)
(0.0970573726 0.000386640737 0)
(0.0970625661 0.000411087672 0)
(0.0970195317 0.000341074008 0)
(0.0970211323 0.000367298892 0)
(0.0969862778 0.000292250782 0)
(0.096984043 0.000320031166 0)
(0.0969582056 0.000240324075 0)
(0.096951915 0.000269448404 0)
(0.0969358928 0.000185469001 0)
(0.0969253615 0.000215743165 0)
(0.0969198891 0.000127913979 0)
(0.0969049904 0.000159149647 0)
(0.0969108541 6.79765534e-05 0)
(0.0968914047 9.9805989e-05 0)
(0.0969096883 6.04984737e-06 0)
(0.096885166 3.78324789e-05 0)
(0.0969166763 -5.73930059e-05 0)
(0.0968868317 -2.59395879e-05 0)
(0.0969321674 -0.000122023091 0)
(0.0968969714 -9.12246371e-05 0)
(0.0969566796 -0.000187649945 0)
(0.0969161101 -0.000157874568 0)
(0.0969905311 -0.000253939134 0)
(0.096944651 -0.000225588736 0)
(0.0970339698 -0.000320460973 0)
(0.0969828648 -0.000293939313 0)
(0.0970871218 -0.000386756154 0)
(0.0970309541 -0.000362436682 0)
(0.0971500154 -0.000452321892 0)
(0.0970890305 -0.000430569061 0)
(0.0972225834 -0.000516613551 0)
(0.0971570968 -0.000497779439 0)
(0.0973046509 -0.000579060773 0)
(0.097235049 -0.000563474021 0)
(0.0973959295 -0.000639079332 0)
(0.0973226687 -0.000627036769 0)
(0.0974960175 -0.000696082926 0)
(0.0974196171 -0.000687840008 0)
(0.0976044015 -0.000749497634 0)
(0.0975254352 -0.000745257784 0)
(0.0977204622 -0.000798776949 0)
(0.0976395468 -0.00079868196 0)
(0.0978434809 -0.000843416418 0)
(0.0977612637 -0.000847539088 0)
(0.0979726495 -0.000882967718 0)
(0.0978897937 -0.000891307367 0)
(0.0981070817 -0.000917051405 0)
(0.0980242523 -0.000929532695 0)
(0.0982458261 -0.000945367641 0)
(0.0981636758 -0.000961842573 0)
(0.0983878825 -0.000967704513 0)
(0.0983070382 -0.000987957042 0)
(0.098532219 -0.000983943496 0)
(0.0984532695 -0.00100769622 0)
(0.0986777915 -0.000994061738 0)
(0.0986012771 -0.00102098419 0)
(0.0988235634 -0.000998131152 0)
(0.0987499665 -0.00102784924 0)
(0.0989685245 -0.000996314391 0)
(0.0988982628 -0.00102842072 0)
(0.0991117093 -0.000988858051 0)
(0.0990451309 -0.00102292269 0)
(0.0992522124 -0.000976083559 0)
(0.0991895938 -0.00101166496 0)
(0.0993892019 -0.000958376275 0)
(0.0993307479 -0.000995031803 0)
(0.0995219301 -0.000936173419 0)
(0.0994677756 -0.000973469142 0)
(0.0996497403 -0.000909951333 0)
(0.0995999544 -0.000947470667 0)
(0.0997720714 -0.00088021266 0)
(0.099726663 -0.000917563642 0)
(0.0998884596 -0.000847473873 0)
(0.0998473839 -0.0008842949 0)
(0.0999985373 -0.000812253626 0)
(0.0999617031 -0.000848217597 0)
(0.10010203 -0.000775062151 0)
(0.100069307 -0.000809879093 0)
(0.100198751 -0.000736391859 0)
(0.100169979 -0.000769810231 0)
(0.100288595 -0.000696709187 0)
(0.100263589 -0.000728516195 0)
(0.10037153 -0.000656447705 0)
(0.10035009 -0.00068646888 0)
(0.100447591 -0.000616000678 0)
(0.100429505 -0.00064410083 0)
(0.100516871 -0.000575711208 0)
(0.100501923 -0.000601798263 0)
(0.100579514 -0.000535866283 0)
(0.100567484 -0.000559893534 0)
(0.100635717 -0.000496701882 0)
(0.100626384 -0.000518664755 0)
(0.100685724 -0.00045841725 0)
(0.100678871 -0.000478343509 0)
(0.10072982 -0.000421189056 0)
(0.100725231 -0.000439125332 0)
(0.100768318 -0.00038517018 0)
(0.10076578 -0.000401176497 0)
(0.100801561 -0.00035047315 0)
(0.100800854 -0.000364632921 0)
(0.10082987 -0.000317167531 0)
(0.100830797 -0.000329604682 0)
(0.100853561 -0.000285299699 0)
(0.100855946 -0.000296165137 0)
(0.100872961 -0.000254905291 0)
(0.100876634 -0.000264354727 0)
(0.100888397 -0.000226007265 0)
(0.1008932 -0.000234196316 0)
(0.100900196 -0.000198614557 0)
(0.100905979 -0.000205701342 0)
(0.100908695 -0.000172725847 0)
(0.100915296 -0.000178876938 0)
(0.1009142 -0.000148328783 0)
(0.100921465 -0.000153664564 0)
(0.100916999 -0.000125394575 0)
(0.100924789 -0.000130009836 0)
(0.100917368 -0.000103879924 0)
(0.10092556 -0.000107869209 0)
(0.10091558 -8.37358176e-05 0)
(0.100924053 -8.71920019e-05 0)
(0.100911895 -6.4923482e-05 0)
(0.100920526 -6.79276762e-05 0)
(0.100906563 -4.74311217e-05 0)
(0.100915218 -5.00353672e-05 0)
(0.100899784 -3.12598828e-05 0)
(0.100908373 -3.34596939e-05 0)
(0.100891666 -1.63931423e-05 0)
(0.100900255 -1.81201393e-05 0)
(0.100882182 -2.7884914e-06 0)
(0.100891075 -3.91406318e-06 0)
(0.100871699 9.50401988e-06 0)
(0.100880897 8.56532445e-06 0)
(0.100860579 2.03443831e-05 0)
(0.100869802 1.97534388e-05 0)
(0.100848733 2.97520172e-05 0)
(0.100857937 2.96924528e-05 0)
(0.10083611 3.79338653e-05 0)
(0.100845343 3.84002228e-05 0)
(0.100822788 4.50997833e-05 0)
(0.100832026 4.60356473e-05 0)
(0.100808861 5.13883062e-05 0)
(0.100818054 5.27386786e-05 0)
(0.100794425 5.68919575e-05 0)
(0.100803535 5.8609657e-05 0)
(0.10077957 6.16854482e-05 0)
(0.100788577 6.37270132e-05 0)
(0.100764383 6.58386027e-05 0)
(0.100773272 6.81610666e-05 0)
(0.100748947 6.94163485e-05 0)
(0.100757701 7.19798995e-05 0)
(0.100733336 7.24753083e-05 0)
(0.100741939 7.52459437e-05 0)
(0.100717619 7.50645368e-05 0)
(0.100726057 7.8013153e-05 0)
(0.100701857 7.72277384e-05 0)
(0.100710122 8.03283863e-05 0)
(0.100686105 7.90038672e-05 0)
(0.100694191 8.22327972e-05 0)
(0.100670412 8.04272521e-05 0)
(0.100678316 8.3762237e-05 0)
(0.100654821 8.1528278e-05 0)
(0.100662543 8.49481033e-05 0)
(0.10063937 8.23341568e-05 0)
(0.100646909 8.58185471e-05 0)
(0.100624093 8.28694757e-05 0)
(0.100631447 8.63993578e-05 0)
(0.100609017 8.31566676e-05 0)
(0.100616187 8.6714503e-05 0)
(0.100594167 8.32164692e-05 0)
(0.10060115 8.6786507e-05 0)
(0.100579563 8.30682772e-05 0)
(0.100586359 8.66366851e-05 0)
(0.100565224 8.2730358e-05 0)
(0.10057183 8.62852242e-05 0)
(0.100551163 8.22199395e-05 0)
(0.100557579 8.57511663e-05 0)
(0.100537395 8.1553235e-05 0)
(0.100543618 8.50523651e-05 0)
(0.100523929 8.07454244e-05 0)
(0.100529959 8.42054332e-05 0)
(0.100510777 7.98106157e-05 0)
(0.100516613 8.32256912e-05 0)
(0.100497945 7.87618062e-05 0)
(0.100503587 8.21271307e-05 0)
(0.100485441 7.76108635e-05 0)
(0.100490889 8.09224092e-05 0)
(0.100473271 7.6368533e-05 0)
(0.100478526 7.96228837e-05 0)
(0.100461439 7.50444793e-05 0)
(0.100466503 7.82386784e-05 0)
(0.10044995 7.36473523e-05 0)
(0.100454824 7.67787806e-05 0)
(0.100438807 7.21848762e-05 0)
(0.100443492 7.52511576e-05 0)
(0.100428012 7.06639531e-05 0)
(0.10043251 7.36628872e-05 0)
(0.100417566 6.90907689e-05 0)
(0.10042188 7.20202922e-05 0)
(0.100407471 6.74708931e-05 0)
(0.100411601 7.03290644e-05 0)
(0.100397726 6.58093695e-05 0)
(0.100401675 6.85943721e-05 0)
(0.100388331 6.41107844e-05 0)
(0.100392101 6.68209423e-05 0)
(0.100379286 6.23793148e-05 0)
(0.100382878 6.5013113e-05 0)
(0.100370591 6.0618755e-05 0)
(0.100374005 6.31748585e-05 0)
(0.100362245 5.88325176e-05 0)
(0.100365482 6.13097893e-05 0)
(0.100354247 5.70236154e-05 0)
(0.100357308 5.94211272e-05 0)
(0.100346596 5.51946104e-05 0)
(0.100349482 5.75116622e-05 0)
(0.100339293 5.33475591e-05 0)
(0.100342002 5.55836769e-05 0)
(0.100332337 5.14838034e-05 0)
(0.10033487 5.3638906e-05 0)
(0.100325728 4.9604182e-05 0)
(0.100328082 5.16781843e-05 0)
(0.100319467 4.77067313e-05 0)
(0.100321647 4.97023937e-05 0)
(0.100313554 4.5795603e-05 0)
(0.100315536 4.77069771e-05 0)
(0.100307986 4.38352747e-05 0)
(0.10030985 4.57074586e-05 0)
(0.100302769 4.19614632e-05 0)
(0.100304246 4.36188171e-05 0)
(0.100297818 3.9491087e-05 0)
(0.100299984 4.18303793e-05 0)
(0.100293004 3.85564355e-05 0)
(0.0999974928 3.65943935e-05 0)
(0.0999998431 1.61287942e-05 0)
(0.0999871174 9.14119734e-05 0)
(0.0999955018 6.80747054e-05 0)
(0.0999642234 0.000161166859 0)
(0.0999812628 0.000142075884 0)
(0.099926085 0.000236840635 0)
(0.0999519199 0.000228984092 0)
(0.0998724616 0.000309119865 0)
(0.0999058295 0.000316960022 0)
(0.0998048798 0.000370546392 0)
(0.0998442212 0.000396130343 0)
(0.0997260488 0.000415710673 0)
(0.0997694598 0.000459145449 0)
(0.0996394919 0.000441316234 0)
(0.0996846247 0.000500943946 0)
(0.0995491595 0.00044638021 0)
(0.099593581 0.000519016569 0)
(0.0994590066 0.000431986845 0)
(0.0995005977 0.000513578412 0)
(0.0993726818 0.000400426175 0)
(0.0994097805 0.000486849957 0)
(0.0992934169 0.000354420856 0)
(0.0993247845 0.0004418176 0)
(0.0992240063 0.000297232588 0)
(0.0992488006 0.000381690793 0)
(0.0991666566 0.000233564929 0)
(0.0991845089 0.000310660743 0)
(0.0991225879 0.000170312542 0)
(0.0991337779 0.000235212861 0)
(0.0990915114 0.000116187298 0)
(0.0990971344 0.000164576718 0)
(0.099071263 8.0003891e-05 0)
(0.0990732494 0.000109482821 0)
(0.0990578183 6.83713355e-05 0)
(0.0990588215 7.95911658e-05 0)
(0.0990458729 8.38425838e-05 0)
(0.099048977 8.07305787e-05 0)
(0.0990299422 0.00012418379 0)
(0.0990380426 0.000113115474 0)
(0.0990055027 0.000182989285 0)
(0.0990205858 0.000171357221 0)
(0.0989697582 0.000251292019 0)
(0.0989924586 0.000246039085 0)
(0.0989218534 0.000319441988 0)
(0.0989514602 0.000325956741 0)
(0.0988626674 0.000378733646 0)
(0.0988974639 0.000400261396 0)
(0.098794475 0.000422517858 0)
(0.0988321468 0.000460043977 0)
(0.0987205303 0.000446669188 0)
(0.0987585407 0.000499185761 0)
(0.0986445992 0.000449508833 0)
(0.0986805192 0.000514492475 0)
(0.0985705469 0.000431442837 0)
(0.0986022869 0.00050535588 0)
(0.0985020343 0.000394555256 0)
(0.0985279668 0.00047325236 0)
(0.0984423003 0.000342317896 0)
(0.0984613257 0.000421314706 0)
(0.0983939748 0.000279479286 0)
(0.0984055778 0.000354120983 0)
(0.0983588711 0.000212051458 0)
(0.0983631827 0.000277694337 0)
(0.098337749 0.000147174407 0)
(0.0983355965 0.00019951597 0)
(0.0983300539 9.26189556e-05 0)
(0.0983229771 0.00012823241 0)
(0.0983338081 5.58141628e-05 0)
(0.0983239223 7.28458357e-05 0)
(0.0983456598 4.24637517e-05 0)
(0.098335426 4.14218517e-05 0)
(0.0983611055 5.51743322e-05 0)
(0.0983531913 3.94250252e-05 0)
(0.0983753511 9.2651318e-05 0)
(0.0983722786 6.78694873e-05 0)
(0.0983842151 0.000149609058 0)
(0.0983877886 0.000122693272 0)
(0.0983847613 0.000217593581 0)
(0.0983956393 0.00019548255 0)
(0.0983757394 0.000286814897 0)
(0.0983933938 0.00027519085 0)
(0.0983576893 0.0003484299 0)
(0.0983806615 0.00035060575 0)
(0.0983326281 0.000396510495 0)
(0.0983589545 0.000412912715 0)
(0.0983033894 0.000429080715 0)
(0.0983310875 0.000457525805 0)
(0.0982728256 0.000447943042 0)
(0.0983003184 0.000484594138 0)
(0.0982431252 0.000457451423 0)
(0.0982694947 0.000498098701 0)
(0.0982154363 0.000462760809 0)
(0.0982404562 0.00050397675 0)
(0.0981898597 0.00046821993 0)
(0.0982138376 0.000508033646 0)
(0.0981657344 0.000476421381 0)
(0.098189252 0.000514385699 0)
(0.0981420494 0.000488077726 0)
(0.0981657086 0.000524853638 0)
(0.0981178124 0.000502538166 0)
(0.0981420644 0.00053927566 0)
(0.0980922677 0.000518560345 0)
(0.098117352 0.000556358313 0)
(0.0980649462 0.000534965512 0)
(0.098090917 0.00057457666 0)
(0.0980356002 0.000550974073 0)
(0.0980623925 0.000592767433 0)
(0.0980040986 0.000566222032 0)
(0.0980315922 0.000610306735 0)
(0.0979703448 0.000580591823 0)
(0.0979984015 0.000626977587 0)
(0.0979342421 0.000594015047 0)
(0.0979627142 0.000642722512 0)
(0.0978956989 0.000606347985 0)
(0.0979244213 0.000657443198 0)
(0.0978546527 0.000617341753 0)
(0.0978834319 0.000670915285 0)
(0.0978110925 0.000626674915 0)
(0.0978397007 0.000682801906 0)
(0.0977650716 0.000634003201 0)
(0.0977932479 0.000692711728 0)
(0.0977167102 0.000638996119 0)
(0.0977441654 0.000700253109 0)
(0.0976661918 0.000641352478 0)
(0.0976926153 0.000705063288 0)
(0.0976137587 0.000640801447 0)
(0.0976388238 0.000706815085 0)
(0.0975597071 0.000637099116 0)
(0.0975830765 0.000705213328 0)
(0.0975043846 0.000630026816 0)
(0.0975257135 0.000699991271 0)
(0.0974481862 0.000619392535 0)
(0.0974671264 0.000690910954 0)
(0.09739155 0.000605034051 0)
(0.0974077541 0.000677766591 0)
(0.0973349528 0.000586822017 0)
(0.0973480782 0.000660388536 0)
(0.0972789049 0.000564662132 0)
(0.0972886179 0.000638646056 0)
(0.0972239451 0.000538496341 0)
(0.0972299249 0.000612448438 0)
(0.0971706364 0.000508303219 0)
(0.0971725788 0.000581744753 0)
(0.0971195624 0.000474097634 0)
(0.0971171819 0.000546522767 0)
(0.0970713246 0.0004359299 0)
(0.0970643552 0.000506807421 0)
(0.0970265388 0.000393884466 0)
(0.0970147347 0.0004626592 0)
(0.0969858329 0.00034807852 0)
(0.0969689669 0.000414172374 0)
(0.0969498434 0.000298662141 0)
(0.0969277051 0.000361473588 0)
(0.0969192109 0.000245820076 0)
(0.0968916049 0.000304722151 0)
(0.0968945764 0.000189774096 0)
(0.0968613209 0.000244110225 0)
(0.0968765882 0.000130788419 0)
(0.0968375091 0.000179863299 0)
(0.0968657854 6.91482922e-05 0)