/*--------------------------------*- C++ -*----------------------------------*\
| =========                 |                                                 |
| \\      /  F ield         | OpenFOAM: The Open Source CFD Toolbox           |
|  \\    /   O peration     | Version:  v2012                                 |
|   \\  /    A nd           | Website:  www.openfoam.com                      |
|    \\/     M anipulation  |                                                 |
\*---------------------------------------------------------------------------*/
FoamFile
{
    version     2.0;
    format      ascii;
    class       volVectorField;
    location    "2.64";
    object      H;
}
// * * * * * * * * * * * * * * * * * * * * * * * * * * * * * * * * * * * * * //

dimensions      [0 1 -2 0 0 0 0];


internalField   nonuniform List<vector> 
28416
(
(183.381295 -0.0164023092 0)
(183.398371 -0.0318956222 0)
(183.426318 -0.0228397982 0)
(183.450594 0.0115128054 0)
(183.4641 0.0676104484 0)
(183.459693 0.136317637 0)
(183.431288 0.209833085 0)
(183.377857 0.280643076 0)
(183.301437 0.341753236 0)
(183.206233 0.387445426 0)
(183.097921 0.413980729 0)
(182.982761 0.420037046 0)
(182.866918 0.406524477 0)
(182.756058 0.375839705 0)
(182.655154 0.331134785 0)
(182.56837 0.276226245 0)
(182.498808 0.21616987 0)
(182.447953 0.157818975 0)
(182.415025 0.109507884 0)
(182.396573 0.0795234849 0)
(182.386528 0.0739640976 0)
(182.376857 0.0950770641 0)
(182.359015 0.140725547 0)
(182.325912 0.204907541 0)
(182.273167 0.279016735 0)
(182.199291 0.353619208 0)
(182.105546 0.42006537 0)
(181.995496 0.471484085 0)
(181.874137 0.503256913 0)
(181.747031 0.513141938 0)
(181.619705 0.501169909 0)
(181.497289 0.469423743 0)
(181.384264 0.421802747 0)
(181.284278 0.36381457 0)
(181.199893 0.302307105 0)
(181.132163 0.24507857 0)
(181.080251 0.200200679 0)
(181.041122 0.17496544 0)
(181.00953 0.174735962 0)
(180.978684 0.201888952 0)
(180.94157 0.25501261 0)
(180.892325 0.328732354 0)
(180.827207 0.414545174 0)
(180.74504 0.502587775 0)
(180.647163 0.583810107 0)
(180.536843 0.651873019 0)
(180.418313 0.704193395 0)
(180.295712 0.74186385 0)
(180.172234 0.768578332 0)
(180.049698 0.789034126 0)
(179.928586 0.807411255 0)
(179.808426 0.826408064 0)
(179.688325 0.847015311 0)
(179.567426 0.868895644 0)
(179.445172 0.8910438 0)
(179.321367 0.912393164 0)
(179.196079 0.932166149 0)
(179.069501 0.949941026 0)
(178.941839 0.965534186 0)
(178.813268 0.978833153 0)
(178.68393 0.989677785 0)
(178.553966 0.997821356 0)
(178.423549 1.00295188 0)
(178.292904 1.00473586 0)
(178.162311 1.00285408 0)
(178.032111 0.997017282 0)
(177.902697 0.986968371 0)
(177.774517 0.97248117 0)
(177.648071 0.953359967 0)
(177.52391 0.92944124 0)
(177.40264 0.900597249 0)
(177.284917 0.866740389 0)
(177.171447 0.827827339 0)
(177.062989 0.783862505 0)
(176.960351 0.734900182 0)
(176.864392 0.681044528 0)
(176.776025 0.622446768 0)
(176.696222 0.559298574 0)
(176.626014 0.491819073 0)
(176.566508 0.420234719 0)
(176.518867 0.344744444 0)
(176.484134 0.265473231 0)
(176.463088 0.182550759 0)
(176.455988 0.0962140458 0)
(176.46169 0.00731525183 0)
(176.484877 -0.0815934178 0)
(176.527599 -0.171641729 0)
(176.589414 -0.26334184 0)
(176.669874 -0.35622543 0)
(176.769255 -0.449706106 0)
(176.887699 -0.54317513 0)
(177.025084 -0.635931305 0)
(177.181141 -0.72721235 0)
(177.355431 -0.816222659 0)
(177.547305 -0.902135271 0)
(177.755905 -0.98409897 0)
(177.980175 -1.06125658 0)
(178.218871 -1.13277004 0)
(178.470577 -1.19784964 0)
(178.733727 -1.25578403 0)
(179.006617 -1.30596678 0)
(179.287439 -1.34791671 0)
(179.574297 -1.3812907 0)
(179.865244 -1.40588993 0)
(180.158312 -1.42166047 0)
(180.451546 -1.42868966 0)
(180.743045 -1.42719912 0)
(181.030986 -1.41753474 0)
(181.313662 -1.40015387 0)
(181.589501 -1.37560987 0)
(181.857086 -1.34453464 0)
(182.115171 -1.30761982 0)
(182.362689 -1.26559746 0)
(182.598753 -1.21922099 0)
(182.822658 -1.16924742 0)
(183.033874 -1.11642113 0)
(183.232034 -1.06145973 0)
(183.416932 -1.0050424 0)
(183.588497 -0.947799973 0)
(183.746784 -0.890306185 0)
(183.891962 -0.833071551 0)
(184.024298 -0.776541159 0)
(184.144143 -0.721095278 0)
(184.251919 -0.667051649 0)
(184.348095 -0.614668781 0)
(184.433167 -0.564139062 0)
(184.507656 -0.515574982 0)
(184.572152 -0.469019704 0)
(184.627315 -0.42448424 0)
(184.673837 -0.381976778 0)
(184.712398 -0.34149586 0)
(184.743637 -0.303006378 0)
(184.768185 -0.266451341 0)
(184.786674 -0.231775112 0)
(184.79973 -0.198927882 0)
(184.807954 -0.16786095 0)
(184.81193 -0.138526055 0)
(184.812234 -0.11089357 0)
(184.809427 -0.0849817804 0)
(184.80403 -0.0608774892 0)
(184.796479 -0.0387463052 0)
(184.787135 -0.0188807579 0)
(184.776005 -0.00155318516 0)
(184.762778 0.0135614681 0)
(184.747172 0.0269327767 0)
(184.729633 0.0387915497 0)
(184.710507 0.0492709291 0)
(184.689978 0.0585144579 0)
(184.668229 0.0666599541 0)
(184.645466 0.0738234168 0)
(184.621878 0.0801046221 0)
(184.597633 0.085592122 0)
(184.572884 0.0903641162 0)
(184.547771 0.0944887065 0)
(184.52242 0.0980242372 0)
(184.496944 0.101020085 0)
(184.471441 0.103518216 0)
(184.445997 0.105555148 0)
(184.420684 0.107163815 0)
(184.395566 0.108375056 0)
(184.370694 0.109218572 0)
(184.346113 0.109723347 0)
(184.321862 0.109917689 0)
(184.297975 0.109829063 0)
(184.274481 0.109483858 0)
(184.251409 0.108907112 0)
(184.22878 0.108122242 0)
(184.206616 0.1071508 0)
(184.184936 0.106012296 0)
(184.163757 0.104724092 0)
(184.143094 0.103301408 0)
(184.122958 0.101757426 0)
(184.103361 0.100103501 0)
(184.084309 0.0983494391 0)
(184.06581 0.0965038216 0)
(184.047868 0.0945743176 0)
(184.030485 0.0925679608 0)
(184.013665 0.090491358 0)
(183.997408 0.0883508105 0)
(183.981715 0.0861523462 0)
(183.966586 0.0839016687 0)
(183.952023 0.0816040117 0)
(183.938029 0.0792640002 0)
(183.924601 0.0768849841 0)
(183.911762 0.0744702633 0)
(183.899461 0.0720140289 0)
(183.887918 0.0695383329 0)
(183.876446 0.0669078848 0)
(183.867692 0.0646587423 0)
(183.850334 0.0601716351 0)
(183.383152 -0.0372837044 0)
(183.401267 -0.0778976086 0)
(183.435494 -0.0729040143 0)
(183.471202 -0.0215198697 0)
(183.495577 0.0703964205 0)
(183.498347 0.188095286 0)
(183.473707 0.315664566 0)
(183.419709 0.43835361 0)
(183.338339 0.543740876 0)
(183.234517 0.622566533 0)
(183.114938 0.669220129 0)
(182.987027 0.681946792 0)
(182.858155 0.662350571 0)
(182.735145 0.614176428 0)
(182.624049 0.542203302 0)
(182.530035 0.45222543 0)
(182.457094 0.352151336 0)
(182.407351 0.253057677 0)
(182.380172 0.168777479 0)
(182.371563 0.113490508 0)
(182.374384 0.0981239226 0)
(182.3793 0.127138763 0)
(182.376187 0.197182584 0)
(182.355914 0.298098628 0)
(182.312043 0.41535605 0)
(182.24174 0.533159587 0)
(182.145853 0.637291345 0)
(182.028377 0.716905563 0)
(181.895474 0.765231483 0)
(181.75438 0.779459261 0)
(181.612498 0.760174487 0)
(181.476788 0.71071318 0)
(181.35337 0.636714341 0)
(181.247215 0.54594568 0)
(181.161792 0.448205668 0)
(181.098584 0.355035538 0)
(181.056561 0.278897037 0)
(181.031941 0.231594489 0)
(181.018366 0.222167604 0)
(181.007504 0.254756959 0)
(180.990191 0.327161786 0)
(180.95806 0.430735025 0)
(180.905186 0.551911155 0)
(180.82918 0.675135358 0)
(180.731419 0.786370228 0)
(180.616356 0.876087277 0)
(180.490146 0.94083262 0)
(180.359008 0.9829725 0)
(180.227834 1.0088722 0)
(180.099413 1.02628689 0)
(179.974406 1.04193171 0)
(179.851917 1.05998803 0)
(179.730336 1.08181961 0)
(179.608102 1.10666276 0)
(179.484154 1.13274812 0)
(179.358042 1.15830357 0)
(179.229771 1.18211208 0)
(179.099572 1.20359159 0)
(178.967701 1.22257171 0)
(178.834353 1.23899773 0)
(178.699663 1.25272418 0)
(178.563752 1.26344731 0)
(178.42678 1.27074028 0)
(178.288977 1.27412519 0)
(178.150646 1.27313299 0)
(178.012163 1.26733427 0)
(177.873966 1.25634384 0)
(177.73656 1.23981442 0)
(177.600509 1.21743296 0)
(177.466434 1.18892266 0)
(177.335021 1.15404832 0)
(177.207008 1.11262193 0)
(177.083193 1.0645066 0)
(176.964424 1.00961833 0)
(176.851598 0.947925688 0)
(176.745661 0.879447896 0)
(176.6476 0.804251501 0)
(176.558441 0.72244536 0)
(176.479238 0.634172869 0)
(176.411064 0.539599596 0)
(176.354962 0.438888258 0)
(176.311898 0.332194993 0)
(176.282802 0.219791059 0)
(176.26888 0.102137158 0)
(176.272129 -0.0200982559 0)
(176.294447 -0.144894961 0)
(176.334661 -0.272294024 0)
(176.394121 -0.402162557 0)
(176.473472 -0.533750613 0)
(176.57304 -0.66619864 0)
(176.693052 -0.798595507 0)
(176.833549 -0.929910157 0)
(176.994359 -1.0590092 0)
(177.175095 -1.18469342 0)
(177.375134 -1.30572057 0)
(177.593613 -1.42083187 0)
(177.82943 -1.52878498 0)
(178.081249 -1.62838784 0)
(178.347523 -1.7185324 0)
(178.626501 -1.79822733 0)
(178.916264 -1.86662815 0)
(179.214747 -1.92306298 0)
(179.51978 -1.96705269 0)
(179.829129 -1.9983244 0)
(180.140534 -2.0168176 0)
(180.45176 -2.0226827 0)
(180.760637 -2.01627204 0)
(181.065103 -1.99812442 0)
(181.363237 -1.96894397 0)
(181.653291 -1.9295748 0)
(181.933709 -1.88097292 0)
(182.203145 -1.82417667 0)
(182.460471 -1.76027723 0)
(182.704775 -1.69039005 0)
(182.935361 -1.6156286 0)
(183.15174 -1.53708081 0)
(183.353613 -1.45578886 0)
(183.540861 -1.37273276 0)
(183.71352 -1.28881719 0)
(183.87177 -1.20486115 0)
(184.015909 -1.12159163 0)
(184.146339 -1.03964115 0)
(184.263542 -0.959547291 0)
(184.368065 -0.881754084 0)
(184.46051 -0.806615264 0)
(184.541528 -0.734393572 0)
(184.611803 -0.665257665 0)
(184.672034 -0.599293952 0)
(184.722914 -0.536535457 0)
(184.765148 -0.476984578 0)
(184.799459 -0.420629411 0)
(184.826548 -0.36744995 0)
(184.847064 -0.317394077 0)
(184.861632 -0.270380193 0)
(184.870868 -0.226321498 0)
(184.87537 -0.185159821 0)
(184.875702 -0.146847992 0)
(184.872362 -0.111332588 0)
(184.865778 -0.078565867 0)
(184.8563 -0.0485225372 0)
(184.844125 -0.0211137585 0)
(184.829574 0.00385534007 0)
(184.81337 0.0261482543 0)
(184.79572 0.0457786089 0)
(184.776474 0.0631356824 0)
(184.755706 0.0784976552 0)
(184.733664 0.0920165181 0)
(184.710537 0.103854117 0)
(184.686477 0.114180909 0)
(184.661645 0.123146521 0)
(184.636199 0.130880879 0)
(184.610282 0.137500981 0)
(184.584025 0.143112735 0)
(184.557544 0.147811641 0)
(184.530947 0.151683437 0)
(184.504329 0.15480479 0)
(184.477777 0.157244308 0)
(184.451363 0.159063641 0)
(184.425155 0.160318449 0)
(184.39921 0.161059275 0)
(184.373577 0.161332347 0)
(184.348297 0.161180212 0)
(184.32341 0.160642204 0)
(184.298944 0.159754784 0)
(184.274929 0.158551776 0)
(184.251386 0.157064521 0)
(184.228336 0.155321953 0)
(184.205795 0.153350646 0)
(184.183779 0.151174857 0)
(184.1623 0.148816575 0)
(184.141368 0.146295599 0)
(184.120991 0.143629649 0)
(184.101178 0.140834506 0)
(184.081932 0.137924183 0)
(184.063258 0.134911105 0)
(184.045158 0.131806293 0)
(184.027634 0.128619524 0)
(184.010687 0.125359473 0)
(183.994317 0.122033806 0)
(183.978523 0.118649215 0)
(183.963305 0.115211407 0)
(183.948663 0.11172498 0)
(183.934598 0.108193342 0)
(183.921104 0.104617824 0)
(183.908201 0.100999797 0)
(183.895827 0.0973271124 0)
(183.8842 0.0936321643 0)
(183.87256 0.0897154465 0)
(183.86366 0.086391562 0)
(183.845498 0.0799178014 0)
(183.383504 -0.0491355001 0)
(183.401368 -0.106387122 0)
(183.433587 -0.10962032 0)
(183.466587 -0.0589712386 0)
(183.488495 0.0379337749 0)
(183.489919 0.167456257 0)
(183.464658 0.31135149 0)
(183.411315 0.451286217 0)
(183.331627 0.572224101 0)
(183.230066 0.663381752 0)
(183.112886 0.718343985 0)
(182.987136 0.735032622 0)
(182.859925 0.715105465 0)
(182.73791 0.66260698 0)
(182.627038 0.582723525 0)
(182.532404 0.481772863 0)
(182.457985 0.368497967 0)
(182.406013 0.255332197 0)
(182.376165 0.157978935 0)
(182.364903 0.0927037868 0)
(182.36532 0.0722430914 0)
(182.367912 0.102223237 0)
(182.362541 0.179625359 0)
(182.34056 0.293490286 0)
(182.296087 0.42752548 0)
(182.226534 0.563646217 0)
(182.132644 0.685255245 0)
(182.018034 0.779464617 0)
(181.888371 0.838075879 0)
(181.750426 0.857548984 0)
(181.611262 0.838365237 0)
(181.477622 0.784226192 0)
(181.3555 0.70144801 0)
(181.249794 0.598698767 0)
(181.16395 0.486930923 0)
(181.099526 0.379127708 0)
(181.05576 0.289450905 0)
(181.029243 0.231523668 0)
(181.013902 0.216010178 0)
(181.001653 0.248173826 0)
(180.983734 0.326135258 0)
(180.952226 0.440532205 0)
(180.901411 0.576040815 0)
(180.828724 0.714599059 0)
(180.735041 0.83949333 0)
(180.624171 0.93905553 0)
(180.501673 1.00878812 0)
(180.373377 1.05129706 0)
(180.244048 1.0742249 0)
(180.116584 1.08708904 0)
(179.991901 1.09823619 0)
(179.869384 1.11290823 0)
(179.747638 1.13281939 0)
(179.62521 1.15698729 0)
(179.501041 1.18314535 0)
(179.374612 1.20903003 0)
(179.245843 1.23310974 0)
(179.114883 1.25469709 0)
(178.981938 1.27366132 0)
(178.847172 1.29003863 0)
(178.710704 1.30375504 0)
(178.572643 1.31453097 0)
(178.433142 1.32192266 0)
(178.292422 1.32541438 0)
(178.150792 1.32449586 0)
(178.008644 1.31870092 0)
(177.866442 1.30761199 0)
(177.724716 1.29085 0)
(177.584061 1.26806709 0)
(177.445132 1.23894708 0)
(177.308651 1.20321097 0)
(177.175396 1.16062371 0)
(177.046201 1.11099968 0)
(176.921953 1.0542064 0)
(176.803588 0.990166475 0)
(176.692089 0.91885841 0)
(176.58848 0.840316293 0)
(176.49383 0.754628389 0)
(176.409239 0.661935496 0)
(176.335836 0.562429026 0)
(176.274779 0.456352294 0)
(176.227245 0.344032944 0)
(176.194351 0.225889235 0)
(176.176722 0.102394323 0)
(176.175216 -0.0258941176 0)
(176.192825 -0.158706497 0)
(176.229713 -0.295192005 0)
(176.28657 -0.434741453 0)
(176.363893 -0.576635375 0)
(176.462217 -0.719950296 0)
(176.581914 -0.863628722 0)
(176.723121 -1.00649788 0)
(176.885758 -1.14727924 0)
(177.069511 -1.28461212 0)
(177.273808 -1.41707785 0)
(177.497806 -1.54322703 0)
(177.74039 -1.66161455 0)
(178.000172 -1.77084047 0)
(178.275512 -1.86959379 0)
(178.564528 -1.9566963 0)
(178.86513 -2.03114328 0)
(179.175059 -2.0921375 0)
(179.491931 -2.13911483 0)
(179.813284 -2.17176007 0)
(180.136633 -2.19001291 0)
(180.459526 -2.19406442 0)
(180.779589 -2.18434462 0)
(181.094579 -2.16150247 0)
(181.402419 -2.12637915 0)
(181.701238 -2.07997657 0)
(181.989386 -2.02342241 0)
(182.265458 -1.95793386 0)
(182.528297 -1.88478154 0)
(182.776994 -1.80525515 0)
(183.010882 -1.72063229 0)
(183.229521 -1.63215109 0)
(183.432682 -1.54098726 0)
(183.620327 -1.44823599 0)
(183.792585 -1.3548983 0)
(183.949728 -1.26187189 0)
(184.092154 -1.1699461 0)
(184.22036 -1.07980042 0)
(184.334927 -0.992005727 0)
(184.436496 -0.907027559 0)
(184.525756 -0.825231106 0)
(184.603422 -0.746891034 0)
(184.670227 -0.672204894 0)
(184.726919 -0.601301711 0)
(184.774259 -0.534247208 0)
(184.812994 -0.471050975 0)
(184.843828 -0.411685456 0)
(184.86745 -0.35610567 0)
(184.88456 -0.304235762 0)
(184.895831 -0.255965562 0)
(184.901862 -0.211166677 0)
(184.903207 -0.169680262 0)
(184.900443 -0.131346731 0)
(184.894145 -0.0960164002 0)
(184.884842 -0.0635166395 0)
(184.8731 -0.0337470225 0)
(184.85957 -0.00680601691 0)
(184.844511 0.0174741821 0)
(184.827388 0.0394555297 0)
(184.808339 0.0591234918 0)
(184.787679 0.0765613374 0)
(184.765595 0.0919837685 0)
(184.7423 0.105562411 0)
(184.717996 0.117444007 0)
(184.692851 0.127780576 0)
(184.667023 0.136717604 0)
(184.640662 0.144386861 0)
(184.613908 0.150908102 0)
(184.586888 0.156390132 0)
(184.559719 0.16093102 0)
(184.532503 0.164618614 0)
(184.505335 0.167531404 0)
(184.478295 0.169739751 0)
(184.451452 0.17130723 0)
(184.424867 0.172291785 0)
(184.398591 0.172746639 0)
(184.372666 0.172721023 0)
(184.34713 0.172260648 0)
(184.322014 0.171407986 0)
(184.297345 0.170202408 0)
(184.273148 0.168680284 0)
(184.249442 0.16687504 0)
(184.226247 0.164817213 0)
(184.203577 0.162534507 0)
(184.181447 0.160051875 0)
(184.159867 0.157391634 0)
(184.138846 0.154573614 0)
(184.118394 0.151615346 0)
(184.098515 0.14853228 0)
(184.079213 0.145338023 0)
(184.060492 0.142044583 0)
(184.042353 0.138662595 0)
(184.024796 0.13520151 0)
(184.007821 0.131669744 0)
(183.991426 0.128074759 0)
(183.97561 0.124423089 0)
(183.96037 0.120720298 0)
(183.945706 0.116970859 0)
(183.931618 0.113178114 0)
(183.918097 0.109343399 0)
(183.905161 0.105468812 0)
(183.892749 0.101542487 0)
(183.881075 0.0976047167 0)
(183.869407 0.093446405 0)
(183.860476 0.0899581329 0)
(183.84263 0.0832154666 0)
(183.383691 -0.0637660052 0)
(183.403585 -0.139905065 0)
(183.439942 -0.146832588 0)
(183.477222 -0.0839952462 0)
(183.502219 0.039662258 0)
(183.507107 0.206383943 0)
(183.484146 0.392142769 0)
(183.430771 0.573179519 0)
(183.348707 0.730005432 0)
(183.242697 0.848678592 0)
(183.119442 0.920924346 0)
(182.986634 0.9439913 0)
(182.852132 0.919864222 0)
(182.72338 0.853582797 0)
(182.607079 0.751676591 0)
(182.508961 0.622143633 0)
(182.433426 0.476086711 0)
(182.382829 0.329360544 0)
(182.356569 0.202107157 0)
(182.350476 0.115346248 0)
(182.357091 0.0857872299 0)
(182.366822 0.121089096 0)
(182.369184 0.217510613 0)
(182.354337 0.360957804 0)
(182.315001 0.53051454 0)
(182.247684 0.703007043 0)
(182.15286 0.857216273 0)
(182.03442 0.976745892 0)
(181.898696 1.05124984 0)
(181.753373 1.07630514 0)
(181.606533 1.05250315 0)
(181.465943 0.984376739 0)
(181.338551 0.879640414 0)
(181.23006 0.748921476 0)
(181.144467 0.605784313 0)
(181.083525 0.466530846 0)
(181.046194 0.349207725 0)
(181.028398 0.27149797 0)
(181.023349 0.247522451 0)
(181.022287 0.284409296 0)
(181.015531 0.379866251 0)
(180.99401 0.521801358 0)
(180.950981 0.690468073 0)
(180.883306 0.862752914 0)
(180.791849 1.01742134 0)
(180.680885 1.13974306 0)
(180.556712 1.22410331 0)
(180.425941 1.27387841 0)
(180.29399 1.29881611 0)
(180.164173 1.31104506 0)
(180.037559 1.32122627 0)
(179.913484 1.33609582 0)
(179.790373 1.3579101 0)
(179.666554 1.3854806 0)
(179.540773 1.41595649 0)
(179.412365 1.44646215 0)
(179.281156 1.47503563 0)
(179.14724 1.50078651 0)
(179.010783 1.52354174 0)
(178.871922 1.54335423 0)
(178.730746 1.5601484 0)
(178.587346 1.57359382 0)
(178.441862 1.58315315 0)
(178.294514 1.58819676 0)
(178.145619 1.58809852 0)
(177.995585 1.58227977 0)
(177.844897 1.57021433 0)
(177.694123 1.55141928 0)
(177.5439 1.52544774 0)
(177.394937 1.49188979 0)
(177.248016 1.4503795 0)
(177.103982 1.4006029 0)
(176.963743 1.3423037 0)
(176.828269 1.27528595 0)
(176.698581 1.19941419 0)
(176.575745 1.11461228 0)
(176.460871 1.02086187 0)
(176.355104 0.918200844 0)
(176.259613 0.806722209 0)
(176.175586 0.686574023 0)
(176.104216 0.55796094 0)
(176.046669 0.421138265 0)
(176.004056 0.276415675 0)
(175.977802 0.124241654 0)
(175.970031 -0.0345392061 0)
(175.983126 -0.198843995 0)
(176.015956 -0.368002617 0)
(176.069665 -0.541215983 0)
(176.145207 -0.717440395 0)
(176.243266 -0.895481587 0)
(176.364344 -1.07400894 0)
(176.508732 -1.25153865 0)
(176.676479 -1.42644666 0)
(176.867356 -1.59699959 0)
(177.080832 -1.76138997 0)
(177.316062 -1.91777713 0)
(177.571869 -2.06433452 0)
(177.846749 -2.19930101 0)
(178.138887 -2.32103338 0)
(178.446176 -2.42805819 0)
(178.766253 -2.51912051 0)
(179.096553 -2.59322652 0)
(179.434354 -2.64967725 0)
(179.776844 -2.68809125 0)
(180.121187 -2.70841456 0)
(180.464586 -2.71091751 0)
(180.804349 -2.69617866 0)
(181.137945 -2.66505769 0)
(181.463051 -2.61865893 0)
(181.777594 -2.55828852 0)
(182.079777 -2.48540746 0)
(182.368095 -2.40158344 0)
(182.641341 -2.30844365 0)
(182.898599 -2.2076305 0)
(183.139238 -2.10076191 0)
(183.362889 -1.98939703 0)
(183.569421 -1.87500809 0)
(183.758917 -1.7589585 0)
(183.931644 -1.64248703 0)
(184.088026 -1.52669731 0)
(184.228613 -1.41255259 0)
(184.354059 -1.30087552 0)
(184.465093 -1.19235185 0)
(184.562499 -1.08753703 0)
(184.647098 -0.986864461 0)
(184.719736 -0.890654522 0)
(184.781264 -0.799124008 0)
(184.832531 -0.712399128 0)
(184.874372 -0.630532387 0)
(184.907596 -0.553519361 0)
(184.932989 -0.481300177 0)
(184.951309 -0.413756968 0)
(184.96328 -0.350742356 0)
(184.969587 -0.292097914 0)
(184.970902 -0.237653598 0)
(184.967859 -0.18721383 0)
(184.96101 -0.140591355 0)
(184.95087 -0.0976537799 0)
(184.937805 -0.0583503391 0)
(184.921851 -0.022560153 0)
(184.903495 0.00991585529 0)
(184.883528 0.0389423093 0)
(184.862063 0.0647679748 0)
(184.839172 0.0877241219 0)
(184.815025 0.10802959 0)
(184.7898 0.125911963 0)
(184.763668 0.141589194 0)
(184.736794 0.155251399 0)
(184.709329 0.167076953 0)
(184.681412 0.177234535 0)
(184.65317 0.185878908 0)
(184.62472 0.193151152 0)
(184.596168 0.199180379 0)
(184.567607 0.204084796 0)
(184.53912 0.207972248 0)
(184.510783 0.210940565 0)
(184.482666 0.213078127 0)
(184.454827 0.214464687 0)
(184.427323 0.215172267 0)
(184.400199 0.215266027 0)
(184.373496 0.214805123 0)
(184.347249 0.213843486 0)
(184.321489 0.21243047 0)
(184.296238 0.210611349 0)
(184.271517 0.208427702 0)
(184.247343 0.205917699 0)
(184.223729 0.203116318 0)
(184.200686 0.200055521 0)
(184.178221 0.196764413 0)
(184.156342 0.193269388 0)
(184.135053 0.189594268 0)
(184.114358 0.185760466 0)
(184.09426 0.181787134 0)
(184.074759 0.177691318 0)
(184.055856 0.173488118 0)
(184.037551 0.169190833 0)
(184.019842 0.164811093 0)
(184.002728 0.160358997 0)
(183.986207 0.155843208 0)
(183.970277 0.151271035 0)
(183.954935 0.146648478 0)
(183.940177 0.141980197 0)
(183.926002 0.13726962 0)
(183.912401 0.132518049 0)
(183.899388 0.127728279 0)
(183.886896 0.122886705 0)
(183.87514 0.118044533 0)
(183.863345 0.112947488 0)
(183.854308 0.108687084 0)
(183.835898 0.100454046 0)
(183.383815 -0.0784976937 0)
(183.403335 -0.175756845 0)
(183.438951 -0.192462315 0)
(183.476496 -0.127165584 0)
(183.502566 0.0112848883 0)
(183.508362 0.202188955 0)
(183.485381 0.417056882 0)
(183.432036 0.627430698 0)
(183.349958 0.810248615 0)
(183.243716 0.949304266 0)
(183.119913 1.03502811 0)
(182.986159 1.06408938 0)
(182.850275 1.03848078 0)
(182.719716 0.963677737 0)
(182.601236 0.846921423 0)
(182.500669 0.697229864 0)
(182.422582 0.527302377 0)
(182.369615 0.3554407 0)
(182.341583 0.205058831 0)
(182.334801 0.100799075 0)
(182.34189 0.0624758028 0)
(182.352464 0.0994717444 0)
(182.355293 0.208030254 0)
(182.340718 0.372191647 0)
(182.301921 0.567815051 0)
(182.23558 0.767930871 0)
(182.142056 0.947680901 0)
(182.024985 1.08772535 0)
(181.89044 1.17575619 0)
(181.745923 1.20639843 0)
(181.599439 1.1801482 0)
(181.458766 1.10208698 0)
(181.330916 0.980962608 0)
(181.221694 0.828874618 0)
(181.135259 0.661333202 0)
(181.073648 0.497099793 0)
(181.036344 0.357044724 0)
(181.019825 0.261603615 0)
(181.017351 0.227287298 0)
(181.019679 0.262826188 0)
(181.016629 0.366154758 0)
(180.998901 0.523890674 0)
(180.959682 0.713552239 0)
(180.895757 0.908259536 0)
(180.807826 1.08289215 0)
(180.699952 1.21974515 0)
(180.578288 1.31184331 0)
(180.449438 1.36297411 0)
(180.318916 1.3846751 0)
(180.19018 1.39148758 0)
(180.064424 1.39630046 0)
(179.941045 1.40732513 0)
(179.818468 1.42736147 0)
(179.694966 1.45500897 0)
(179.569209 1.48681656 0)
(179.440456 1.51928266 0)
(179.308466 1.55001693 0)
(179.17328 1.577949 0)
(179.035022 1.60290257 0)
(178.893792 1.62499239 0)
(178.749651 1.64418318 0)
(178.602666 1.6601274 0)
(178.452958 1.67221914 0)
(178.300741 1.67973251 0)
(178.146338 1.68193972 0)
(177.990169 1.67816837 0)
(177.832752 1.66780891 0)
(177.674692 1.65030143 0)
(177.516676 1.62512463 0)
(177.359471 1.59179519 0)
(177.203919 1.54987518 0)
(177.05093 1.49898118 0)
(176.901477 1.43879135 0)
(176.756588 1.36904931 0)
(176.617341 1.28956563 0)
(176.484857 1.20021799 0)
(176.3603 1.10095089 0)
(176.244868 0.991775334 0)
(176.139796 0.872769055 0)
(176.046347 0.744078974 0)
(175.965806 0.605928198 0)
(175.899479 0.458624876 0)
(175.848698 0.302596315 0)
(175.814669 0.138413847 0)
(175.798991 -0.0334472143 0)
(175.804951 -0.21247519 0)
(175.83181 -0.397777382 0)
(175.880728 -0.588356808 0)
(175.952704 -0.783097237 0)
(176.048631 -0.980674237 0)
(176.169222 -1.17955775 0)
(176.314949 -1.37803067 0)
(176.486018 -1.57420308 0)
(176.682324 -1.76603708 0)
(176.903422 -1.95138354 0)
(177.148496 -2.12802961 0)
(177.416343 -2.29375681 0)
(177.705365 -2.44640777 0)
(178.013578 -2.58395723 0)
(178.338642 -2.70458305 0)
(178.677898 -2.80673237 0)
(179.028428 -2.88917844 0)
(179.387124 -2.95106441 0)
(179.750766 -2.99193155 0)
(180.116104 -3.01173048 0)
(180.479946 -3.01081522 0)
(180.839231 -2.98992071 0)
(181.191104 -2.95012626 0)
(181.53297 -2.89280724 0)
(181.862543 -2.81957867 0)
(182.177871 -2.73223429 0)
(182.477361 -2.63268458 0)
(182.759772 -2.5228969 0)
(183.024211 -2.40484032 0)
(183.270114 -2.28043704 0)
(183.497216 -2.15152158 0)
(183.705521 -2.01980829 0)
(183.895268 -1.88686723 0)
(184.066893 -1.75410807 0)
(184.220995 -1.62277096 0)
(184.358303 -1.4939239 0)
(184.47964 -1.36846524 0)
(184.585901 -1.24713005 0)
(184.678026 -1.13049964 0)
(184.756979 -1.01901343 0)
(184.823728 -0.912983058 0)
(184.879233 -0.812608073 0)
(184.924436 -0.717991327 0)
(184.960249 -0.62915282 0)
(184.987549 -0.546042854 0)
(185.007173 -0.468555713 0)
(185.019911 -0.39654395 0)
(185.02651 -0.329831759 0)
(185.02767 -0.268222661 0)
(185.02403 -0.211503933 0)
(185.016164 -0.159471016 0)
(185.004573 -0.111910875 0)
(184.989674 -0.0685852442 0)
(184.97198 -0.029242397 0)
(184.952355 0.00636580672 0)
(184.931367 0.0385717807 0)
(184.908713 0.0676235916 0)
(184.884555 0.0935994986 0)
(184.859107 0.116688146 0)
(184.832567 0.13709202 0)
(184.805118 0.155012935 0)
(184.77693 0.170653195 0)
(184.748159 0.184203505 0)
(184.718947 0.195843721 0)
(184.689426 0.205744509 0)
(184.659714 0.214065155 0)
(184.629921 0.220952459 0)
(184.600148 0.226541156 0)
(184.570487 0.230954647 0)
(184.541017 0.234305839 0)
(184.51181 0.236698001 0)
(184.482925 0.238225528 0)
(184.454413 0.238974617 0)
(184.426316 0.239023888 0)
(184.398672 0.238444953 0)
(184.371511 0.237302975 0)
(184.344857 0.235657178 0)
(184.318734 0.233561338 0)
(184.293158 0.231064238 0)
(184.268146 0.228210096 0)
(184.243711 0.225038951 0)
(184.219865 0.221586995 0)
(184.196614 0.217886867 0)
(184.173967 0.213967916 0)
(184.151929 0.209856447 0)
(184.130503 0.205575953 0)
(184.109693 0.201147353 0)
(184.089498 0.196589222 0)
(184.069917 0.191918016 0)
(184.050951 0.187148282 0)
(184.032595 0.182292854 0)
(184.014846 0.177363015 0)
(183.997701 0.17236863 0)
(183.981155 0.16731824 0)
(183.965204 0.162219115 0)
(183.949841 0.157077271 0)
(183.935064 0.151897434 0)
(183.920868 0.14668318 0)
(183.907242 0.141436011 0)
(183.894201 0.13615956 0)
(183.881676 0.130839885 0)
(183.86988 0.125536516 0)
(183.858062 0.119972948 0)
(183.848998 0.115357386 0)
(183.830843 0.106472519 0)
(183.384062 -0.0935268515 0)
(183.404844 -0.210719398 0)
(183.442194 -0.233440017 0)
(183.480814 -0.159983847 0)
(183.50672 -0.000852424191 0)
(183.513207 0.220484124 0)
(183.491248 0.471180725 0)
(183.437951 0.717653792 0)
(183.35478 0.932541615 0)
(183.246337 1.09663588 0)
(183.119379 1.1985224 0)
(182.981846 1.2340707 0)
(182.842007 1.20539543 0)
(182.707805 1.11875538 0)
(182.58646 0.98256586 0)
(182.484189 0.807386753 0)
(182.405794 0.608102889 0)
(182.353892 0.406134469 0)
(182.327978 0.228846862 0)
(182.323766 0.105027247 0)
(182.333442 0.0578845289 0)
(182.346938 0.0986540018 0)
(182.35325 0.223403381 0)
(182.342032 0.413968404 0)
(182.305629 0.642364157 0)
(182.240262 0.877004512 0)
(182.146195 1.08859175 0)
(182.027215 1.25422082 0)
(181.889721 1.3592276 0)
(181.741669 1.39709853 0)
(181.591595 1.36821779 0)
(181.447837 1.27834595 0)
(181.317946 1.1375346 0)
(181.208175 0.959762487 0)
(181.122964 0.763025582 0)
(181.064314 0.569157315 0)
(181.031123 0.402628278 0)
(181.019145 0.287705413 0)
(181.021489 0.24408313 0)
(181.029081 0.282232479 0)
(181.031822 0.400130944 0)
(181.020252 0.582282054 0)
(180.987019 0.802287945 0)
(180.92827 1.02862561 0)
(180.844351 1.23183403 0)
(180.73929 1.39104 0)
(180.619392 1.49787077 0)
(180.49149 1.55656906 0)
(180.361352 1.58052795 0)
(180.232659 1.58676922 0)
(180.106767 1.59048551 0)
(179.983155 1.60145399 0)
(179.86025 1.62311894 0)
(179.736264 1.65396385 0)
(179.609764 1.69000974 0)
(179.479894 1.72716514 0)
(179.346307 1.76261004 0)
(179.208956 1.79506474 0)
(179.067893 1.82430677 0)
(178.923165 1.85046835 0)
(178.774787 1.87351547 0)
(178.62279 1.89305074 0)
(178.467272 1.9083709 0)
(178.308435 1.91862668 0)
(178.146596 1.92296134 0)
(177.982191 1.92057903 0)
(177.815759 1.91075423 0)
(177.647939 1.89281717 0)
(177.479462 1.86614179 0)
(177.311147 1.83014594 0)
(177.143898 1.78430038 0)
(176.978696 1.72813948 0)
(176.81659 1.6612686 0)
(176.658698 1.58336717 0)
(176.506191 1.49418828 0)
(176.360287 1.39355661 0)
(176.222246 1.28136622 0)
(176.093363 1.15757892 0)
(175.97496 1.0222244 0)
(175.868392 0.875402252 0)
(175.775038 0.71728739 0)
(175.696295 0.548138055 0)
(175.633588 0.368307526 0)
(175.588419 0.178249365 0)
(175.562707 -0.0213529928 0)
(175.560474 -0.229612303 0)
(175.580292 -0.445586595 0)
(175.623527 -0.668170036 0)
(175.691478 -0.896022285 0)
(175.785283 -1.12757318 0)
(175.905888 -1.36102088 0)
(176.054 -1.59432647 0)
(176.230031 -1.82522559 0)
(176.434044 -2.05125937 0)
(176.665695 -2.26982132 0)
(176.924202 -2.47821755 0)
(177.208309 -2.67373934 0)
(177.516278 -2.85374552 0)
(177.845897 -3.01575048 0)
(178.194511 -3.15751319 0)
(178.559067 -3.27712187 0)
(178.936194 -3.37306833 0)
(179.32228 -3.44430637 0)
(179.713581 -3.49029013 0)
(180.106319 -3.51098934 0)
(180.496792 -3.50688109 0)
(180.88147 -3.47891911 0)
(181.257085 -3.42848403 0)
(181.620702 -3.35731844 0)
(181.969769 -3.26745205 0)
(182.302152 -3.16112191 0)
(182.616154 -3.04069243 0)
(182.910506 -2.90857951 0)
(183.184352 -2.76718169 0)
(183.437223 -2.61882097 0)
(183.668995 -2.4656943 0)
(183.879848 -2.30983611 0)
(184.070223 -2.15309193 0)
(184.24077 -1.99710194 0)
(184.392312 -1.84329328 0)
(184.525798 -1.69287998 0)
(184.642266 -1.5468691 0)
(184.742814 -1.40607152 0)
(184.828569 -1.27111632 0)
(184.900664 -1.14246732 0)
(184.960221 -1.02044073 0)
(185.008335 -0.905223296 0)
(185.046062 -0.79689039 0)
(185.074411 -0.695423933 0)
(185.094337 -0.600729372 0)
(185.106739 -0.512650427 0)
(185.112455 -0.430980972 0)
(185.112265 -0.355477548 0)
(185.106896 -0.285872307 0)