/*--------------------------------*- C++ -*----------------------------------*\
| =========                 |                                                 |
| \\      /  F ield         | OpenFOAM: The Open Source CFD Toolbox           |
|  \\    /   O peration     | Version:  v2012                                 |
|   \\  /    A nd           | Website:  www.openfoam.com                      |
|    \\/     M anipulation  |                                                 |
\*---------------------------------------------------------------------------*/
FoamFile
{
    version     2.0;
    format      ascii;
    class       volScalarField;
    location    "2.64";
    object      p;
}
// * * * * * * * * * * * * * * * * * * * * * * * * * * * * * * * * * * * * * //

dimensions      [0 2 -2 0 0 0 0];


internalField   nonuniform List<scalar> 
28416
(
-0.00491026209
-0.00491158501
-0.00491450807
-0.00491893352
-0.0049244037
-0.00493131993
-0.00493981462
-0.00494987434
-0.00496153879
-0.00497482445
-0.00498972785
-0.0050062232
-0.005024265
-0.00504379507
-0.00506474492
-0.00508703396
-0.00511056696
-0.00513523368
-0.00516091291
-0.00518748022
-0.00521481828
-0.00524283888
-0.00527150209
-0.00530074012
-0.0053304187
-0.00536041852
-0.00539061549
-0.00542087837
-0.00545106544
-0.00548102149
-0.00551058006
-0.00553956708
-0.00556780325
-0.00559510731
-0.00562129976
-0.00564620555
-0.00566965795
-0.00569150044
-0.00571158048
-0.0057297377
-0.00574579373
-0.00575955634
-0.00577083548
-0.0057794564
-0.00578526481
-0.00578812745
-0.00578793097
-0.00578458064
-0.00577799966
-0.00576812875
-0.00575492588
-0.00573836616
-0.00571844176
-0.00569516214
-0.00566855404
-0.00563866137
-0.0056055447
-0.00556928033
-0.00552995925
-0.00548768577
-0.00544257608
-0.0053947568
-0.00534436327
-0.00529153801
-0.00523642918
-0.00517918921
-0.00511997337
-0.00505893836
-0.00499624093
-0.00493203664
-0.00486647883
-0.0047997177
-0.00473189958
-0.0046631663
-0.00459365486
-0.00452349716
-0.00445282001
-0.0043817456
-0.00431039274
-0.00423888027
-0.00416733612
-0.00409587977
-0.00402459791
-0.00395354358
-0.00388275295
-0.00381223024
-0.00374213529
-0.00367258412
-0.00360361202
-0.00353530331
-0.00346774124
-0.003400994
-0.00333512608
-0.00327020012
-0.00320627466
-0.00314340371
-0.00308163667
-0.00302101776
-0.00296158526
-0.00290337105
-0.00284640007
-0.00279068984
-0.00273625024
-0.00268308333
-0.0026311834
-0.00258053716
-0.0025311241
-0.0024829171
-0.00243588304
-0.0023899836
-0.0023451761
-0.00230141445
-0.00225864999
-0.00221683242
-0.00217591065
-0.00213583355
-0.00209655064
-0.00205801273
-0.00202017239
-0.00198298451
-0.0019464067
-0.00191039963
-0.00187492705
-0.00183995575
-0.00180545561
-0.0017713997
-0.00173776465
-0.00170453035
-0.00167167816
-0.00163918877
-0.0016070411
-0.00157521539
-0.00154369375
-0.00151246026
-0.00148150038
-0.00145080053
-0.0014203492
-0.00139013655
-0.00136015375
-0.00133039209
-0.00130084327
-0.00127149984
-0.00124233155
-0.00121331951
-0.00118446625
-0.00115578287
-0.00112727485
-0.0010989368
-0.00107076367
-0.00104275312
-0.00101490274
-0.000987209287
-0.000959669183
-0.000932278765
-0.000905034262
-0.00087793179
-0.000850967343
-0.000824136826
-0.000797436101
-0.000770861019
-0.00074440743
-0.000718071195
-0.000691848204
-0.000665734377
-0.000639725659
-0.000613818024
-0.000588007465
-0.000562289989
-0.000536661618
-0.00051111839
-0.00048565635
-0.000460271555
-0.000434960082
-0.000409718019
-0.000384541471
-0.000359426577
-0.000334369494
-0.000309366409
-0.000284413552
-0.000259507191
-0.000234643636
-0.00020981926
-0.000185030483
-0.000160273879
-0.000135545889
-0.000110843981
-8.61630053e-05
-6.15089541e-05
-3.68557236e-05
-1.23188059e-05
-0.00490520215
-0.00490639323
-0.00490932812
-0.00491395609
-0.00491994725
-0.00492736881
-0.00493629343
-0.00494677765
-0.00495881843
-0.00497241682
-0.0049875682
-0.00500425167
-0.00502242924
-0.00504205075
-0.00506305622
-0.00508537514
-0.00510892656
-0.00513362115
-0.0051593647
-0.00518606245
-0.00521362065
-0.00524194598
-0.00527095132
-0.00530053861
-0.00533058742
-0.00536097174
-0.00539156014
-0.0054222157
-0.00545279486
-0.00548314494
-0.00551310423
-0.00554250406
-0.00557117077
-0.00559892739
-0.00562559517
-0.00565099422
-0.00567494334
-0.00569726058
-0.00571776376
-0.0057362709
-0.00575260504
-0.00576659501
-0.00577807419
-0.00578688227
-0.00579286916
-0.00579589877
-0.00579585137
-0.00579262476
-0.00578613494
-0.00577631658
-0.00576312343
-0.00574652836
-0.00572652338
-0.00570311937
-0.00567634566
-0.00564624944
-0.0056128949
-0.00557636229
-0.00553674671
-0.00549415675
-0.00544871306
-0.00540054673
-0.00534979747
-0.00529661194
-0.00524114203
-0.00518354337
-0.00512397391
-0.00506259252
-0.0049995576
-0.00493502575
-0.00486915081
-0.00480208299
-0.00473396814
-0.00466494724
-0.00459515612
-0.00452472529
-0.00445378008
-0.00438244109
-0.00431082488
-0.00423904463
-0.00416720889
-0.00409541238
-0.00402372919
-0.00395221818
-0.00388091494
-0.00381016909
-0.00373977557
-0.00366986794
-0.00360054419
-0.003531878
-0.00346394718
-0.00339682654
-0.00333058619
-0.00326529336
-0.00320101195
-0.00313780181
-0.0030757182
-0.00301481105
-0.00295512415
-0.00289669436
-0.00283955094
-0.00278371487
-0.00272919851
-0.00267600525
-0.00262412958
-0.00257355723
-0.00252426563
-0.00247622457
-0.00242939699
-0.00238373995
-0.00233920568
-0.00229574265
-0.00225329673
-0.00221181221
-0.00217123279
-0.00213150253
-0.0020925666
-0.00205437197
-0.00201686798
-0.00198000673
-0.00194374343
-0.00190803659
-0.00187284815
-0.00183814347
-0.00180389146
-0.00177006432
-0.00173663689
-0.00170358613
-0.00167089111
-0.00163853337
-0.00160649698
-0.00157476647
-0.00154332629
-0.00151216104
-0.00148125712
-0.00145060243
-0.0014201861
-0.00138999754
-0.00136002642
-0.00133026287
-0.00130069804
-0.00127134278
-0.00124217792
-0.0012131948
-0.00118438325
-0.00115573554
-0.00112725535
-0.0010989421
-0.00107079159
-0.00104280067
-0.00101496682
-0.000987287084
-0.000959758126
-0.000932376499
-0.000905138666
-0.000878041007
-0.000851079816
-0.000824251298
-0.000797551597
-0.000770976809
-0.000744522991
-0.000718186163
-0.000691962331
-0.000665847493
-0.000639837643
-0.000613928783
-0.000588116924
-0.00056239808
-0.000536768278
-0.000511223565
-0.000485759994
-0.00046037363
-0.000435060563
-0.000409816892
-0.000384638733
-0.000359522231
-0.000334463545
-0.000309458859
-0.000284504391
-0.000259596385
-0.000234731116
-0.000209904901
-0.000185114085
-0.000160355118
-0.000135624239
-0.00011091861
-8.62322901e-05
-6.15703444e-05
-3.69020452e-05
-1.23436587e-05
-0.00489896128
-0.00490021638
-0.00490317857
-0.00490777881
-0.00491373054
-0.00492121986
-0.0049302516
-0.00494086314
-0.0049530479
-0.00496679999
-0.00498211388
-0.00499896989
-0.0050173319
-0.00503715179
-0.00505837183
-0.00508092442
-0.00510473182
-0.00512970739
-0.00515575805
-0.00518278768
-0.00521070413
-0.00523942035
-0.0052688324
-0.00529883425
-0.00532931976
-0.00536017274
-0.00539126567
-0.00542246188
-0.005453616
-0.00548457309
-0.00551516896
-0.00554523177
-0.00557458352
-0.00560304134
-0.00563041915
-0.00565652933
-0.00568118392
-0.00570419566
-0.00572537786
-0.00574454279
-0.00576150289
-0.00577607658
-0.00578809116
-0.00579738359
-0.00580380259
-0.00580721096
-0.00580748691
-0.00580452521
-0.00579823846
-0.00578855815
-0.00577543546
-0.00575884184
-0.00573876909
-0.00571522917
-0.00568825368
-0.00565789315
-0.00562421607
-0.00558730776
-0.005547269
-0.00550421452
-0.00545827131
-0.00540957681
-0.00535827729
-0.00530452597
-0.00524848135
-0.0051903053
-0.00513016127
-0.00506821275
-0.005004622
-0.0049395488
-0.00487314941
-0.0048055758
-0.0047369749
-0.00466748817
-0.00459725139
-0.00452639456
-0.00445504198
-0.00438331249
-0.0043113197
-0.00423917198
-0.00416697174
-0.00409481319
-0.00402278168
-0.00395095678
-0.00387944141
-0.00380824784
-0.00373751567
-0.00366730591
-0.00359768574
-0.00352873218
-0.00346052268
-0.00339313126
-0.00332662948
-0.0032610869
-0.00319657012
-0.00313314206
-0.00307086124
-0.00300978088
-0.00294994795
-0.00289140218
-0.00283417518
-0.00277828971
-0.00272375913
-0.00267058706
-0.00261876732
-0.00256828418
-0.00251911282
-0.00247122012
-0.00242456558
-0.00237910244
-0.00233477887
-0.00229153923
-0.00224932534
-0.00220807763
-0.00216773625
-0.0021282421
-0.00208953759
-0.00205156738
-0.00201427894
-0.00197762295
-0.00194155362
-0.0019060289
-0.00187101041
-0.00183646341
-0.00180235656
-0.00176866175
-0.0017353537
-0.00170240967
-0.00166980923
-0.00163753386
-0.00160556681
-0.00157389246
-0.001542497
-0.00151136829
-0.00148049423
-0.00144986262
-0.00141946495
-0.00138929456
-0.00135934348
-0.00132960202
-0.00130005036
-0.00127072601
-0.00124157624
-0.00121259389
-0.00118378658
-0.00115515011
-0.00112668177
-0.0010983803
-0.00107024255
-0.00104226508
-0.00101444498
-0.000986779248
-0.000959264604
-0.000931897598
-0.000904674639
-0.000877592023
-0.000850645939
-0.000823832485
-0.000797147705
-0.000770587624
-0.000744148257
-0.000717825611
-0.000691615705
-0.000665514562
-0.000639518211
-0.000613622691
-0.000587824044
-0.000562118315
-0.000536501548
-0.000510969801
-0.00048551913
-0.0004601456
-0.000434845291
-0.000409614291
-0.000384448705
-0.000359344661
-0.000334298303
-0.0003093058
-0.00028436335
-0.000259467178
-0.000234613534
-0.000209798698
-0.000185018966
-0.000160270724
-0.000135550124
-0.000110854236
-8.61771645e-05
-6.1524325e-05
-3.68673788e-05
-1.23259744e-05
-0.00489059551
-0.00489187141
-0.00489490689
-0.00489965131
-0.00490602453
-0.00491377332
-0.00492311487
-0.00493403734
-0.00494652638
-0.00496057373
-0.00497616884
-0.00499329171
-0.00501190925
-0.00503197816
-0.00505344702
-0.00507625604
-0.00510033716
-0.00512561557
-0.00515201136
-0.00517943909
-0.00520780079
-0.00523698755
-0.00526691943
-0.00529750167
-0.00532861359
-0.00536012826
-0.00539191446
-0.00542383419
-0.00545574115
-0.00548747963
-0.00551888429
-0.00554978112
-0.00557998884
-0.00560932016
-0.00563758304
-0.00566458224
-0.00569012135
-0.00571400536
-0.00573604331
-0.00575604628
-0.00577382151
-0.0057891748
-0.00580192013
-0.00581188467
-0.00581890981
-0.00582285188
-0.00582358316
-0.00582099318
-0.00581499026
-0.00580550282
-0.00579248029
-0.0057758936
-0.00575573527
-0.00573201922
-0.00570478028
-0.00567407339
-0.00563997264
-0.00560256993
-0.00556197345
-0.00551830592
-0.00547170277
-0.00542231009
-0.00537028272
-0.00531578223
-0.00525897491
-0.00520002981
-0.00513911684
-0.00507640523
-0.00501206209
-0.00494625122
-0.00487913202
-0.00481085875
-0.00474157981
-0.00467143736
-0.00460056712
-0.00452909823
-0.00445715333
-0.00438484879
-0.00431229482
-0.00423959558
-0.004166849
-0.00409414612
-0.00402157346
-0.0039492147
-0.00387714175
-0.00380545601
-0.00373420526
-0.00366347266
-0.00359333894
-0.00352387897
-0.0034551685
-0.003387284
-0.00332030085
-0.00325429299
-0.00318933228
-0.00312548758
-0.00306282369
-0.00300140018
-0.00294127011
-0.00288247877
-0.00282506254
-0.00276904785
-0.0027144504
-0.00266127477
-0.00260951421
-0.00255915095
-0.00251015675
-0.00246249383
-0.00241611603
-0.00237097018
-0.00232699755
-0.0022841354
-0.00224231845
-0.0022014803
-0.00216155471
-0.00212247672
-0.00208418356
-0.00204661546
-0.00200971615
-0.0019734333
-0.00193771878
-0.0019025287
-0.0018678234
-0.00183356734
-0.00179972882
-0.00176627983
-0.00173319559
-0.00170045418
-0.00166803617
-0.00163592431
-0.00160410331
-0.00157255963
-0.00154128104
-0.00151025643
-0.00147947582
-0.0014489311
-0.00141861297
-0.00138851207
-0.00135862065
-0.00132893067
-0.00129945862
-0.00127012563
-0.00124099535
-0.00121204524
-0.00118326795
-0.00115466105
-0.00112622129
-0.00109794615
-0.00106983285
-0.00104187821
-0.00101407918
-0.00098643266
-0.000958935407
-0.000931584077
-0.000904375255
-0.000877305473
-0.000850371206
-0.000823568837
-0.000796894666
-0.00077034492
-0.000743915756
-0.000717603271
-0.000691403523
-0.000665312546
-0.000639326359
-0.000613440978
-0.000587652424
-0.000561956718
-0.000536349895
-0.000510828004
-0.000485387104
-0.000460023265
-0.000434732581
-0.000409511151
-0.000384355091
-0.000359260539
-0.000334223641
-0.000309240561
-0.000284307483
-0.000259420608
-0.00023457615
-0.00020977034
-0.00018499941
-0.00016025966
-0.000135547128
-0.000110858737
-8.61882136e-05
-6.15405306e-05
-3.68843989e-05
-1.23387222e-05
-0.00488014799
-0.00488142864
-0.00488448575
-0.00488924133
-0.00489540354
-0.00490346742
-0.00491300811
-0.00492412577
-0.00493682957
-0.004951109
-0.00496695638
-0.00498435375
-0.00500326934
-0.00502366154
-0.00504548131
-0.00506867185
-0.00509316835
-0.00511889857
-0.00514578364
-0.00517374054
-0.00520269293
-0.00523257311
-0.00526325258
-0.00529460722
-0.00532652964
-0.00535890171
-0.00539159295
-0.00542446377
-0.00545736579
-0.00549014117
-0.0055226222
-0.00555463172
-0.00558598408
-0.00561648658
-0.00564594124
-0.00567414649
-0.00570089836
-0.00572598839
-0.0057492015
-0.00577032254
-0.00578914657
-0.00580548136
-0.00581914245
-0.00582995243
-0.00583774474
-0.0058423665
-0.0058436809
-0.00584156963
-0.00583593438
-0.00582669807
-0.00581380612
-0.0057972274
-0.00577695458
-0.00575300394
-0.00572541475
-0.00569424821
-0.00565958614
-0.00562152948
-0.00558019647
-0.0055357207
-0.00548824898
-0.00543793912
-0.00538495756
-0.00532947716
-0.0052716749
-0.00521172977
-0.0051498208
-0.0050861253
-0.00502081737
-0.00495406651
-0.0048860366
-0.00481688511
-0.00474676247
-0.00467581176
-0.00460416858
-0.00453196108
-0.00445931013
-0.0043863296
-0.00431312665
-0.00423980206
-0.00416645057
-0.0040931614
-0.00402001873
-0.0039471014
-0.00387449052
-0.0038022509
-0.00373046816
-0.00365921508
-0.00358856518
-0.00351859511
-0.00344938286
-0.0033810068
-0.00331354545
-0.00324707716
-0.00318167915
-0.00311742641
-0.00305439037
-0.00299263738
-0.00293222709
-0.00287321084
-0.00281563009
-0.00275951509
-0.00270488388
-0.00265174164
-0.00260008049
-0.00254987981
-0.00250110692
-0.00245371825
-0.00240766078
-0.00236287372
-0.00231929034
-0.00227683977
-0.00223544886
-0.00219504377
-0.0021555515
-0.00211690107
-0.00207902462
-0.00204185813
-0.002005342
-0.00196942139
-0.00193404639
-0.00189917201
-0.0018647581
-0.00183076905
-0.00179717355
-0.00176394415
-0.00173105687
-0.00169849081
-0.00166622772
-0.00163425176
-0.00160254904
-0.00157110729
-0.00153991553
-0.00150896396
-0.00147824355
-0.00144774565
-0.0014174617
-0.0013873846
-0.00135751029
-0.00132784483
-0.001298369
-0.00126907865
-0.00123997161
-0.00121104417
-0.00118229092
-0.00115370836
-0.00112529317
-0.00109704238
-0.00106895314
-0.00104102245
-0.00101324728
-0.000985624605
-0.000958151296
-0.000930824059
-0.000903639435
-0.000876593834
-0.000849683575
-0.000822904904
-0.000796254019
-0.000769727097
-0.000743320297
-0.000717029754
-0.000690851592
-0.000664781917
-0.00063881682
-0.000612952381
-0.000587184672
-0.000561509751
-0.000535923673
-0.000510422495
-0.000485002273
-0.000459659063
-0.000434388939
-0.000409187977
-0.000384052267
-0.000358977919
-0.000333961058
-0.000308997822
-0.000284084375
-0.000259216896
-0.000234391573
-0.00020960461
-0.000184852201
-0.000160130601
-0.000135435796
-0.000110764654
-8.61109715e-05
-6.14799816e-05
-3.68423522e-05
-1.23195889e-05
-0.00486759576
-0.00486891989
-0.00487208338
-0.0048770485
-0.00488372102
-0.00489170989
-0.00490141156
-0.00491276682
-0.0049257417
-0.00494031878
-0.0049564851
-0.00497422222
-0.00499350122
-0.00501428497
-0.00503652978
-0.00506018463
-0.00508519053
-0.00511148115
-0.00513898421
-0.00516762116
-0.00519729749
-0.00522789355
-0.00525934458
-0.00529155843
-0.00532441414
-0.00535778641
-0.00539154337
-0.00542554368
-0.00545963604
-0.00549365876
-0.00552743945
-0.00556079541
-0.00559353441
-0.00562545547
-0.00565634975
-0.00568600089
-0.0057141871
-0.00574068957
-0.00576529704
-0.00578779669
-0.00580797191
-0.00582560853
-0.00584049542
-0.00585243347
-0.00586124329
-0.00586676325
-0.00586884799
-0.00586737072
-0.00586222583
-0.0058533307
-0.00584062738
-0.00582408359
-0.00580369304
-0.00577947516
-0.00575147443
-0.00571975932
-0.00568442091
-0.00564557107
-0.00560334041
-0.00555787596
-0.00550933864
-0.00545790065
-0.00540374278
-0.00534705183
-0.00528801805
-0.00522683276
-0.00516368617
-0.00509876544
-0.0050322531
-0.00496432563
-0.00489515244
-0.00482489509
-0.00475370677
-0.00468173198
-0.00460910652
-0.00453595758
-0.00446240399
-0.00438855669
-0.00431451919
-0.00424038819
-0.00416625417
-0.00409220207
-0.00401831242
-0.00394466257
-0.00387132655
-0.00379838226
-0.00372589779
-0.00365394724
-0.0035826067
-0.00351195348
-0.00344206667
-0.0033730276
-0.0033049194
-0.00323782633
-0.00317183276
-0.00310702184
-0.0030434739
-0.00298126444
-0.00292046207
-0.00286112636
-0.00280330578
-0.00274703594
-0.00269233814
-0.00263921857
-0.00258766795
-0.0025376619
-0.00248916188
-0.0024421166
-0.00239646389
-0.00235213288
-0.00230904619
-0.00226712228
-0.00222627763
-0.00218642867
-0.00214749354
-0.00210939352
-0.0020720541
-0.00203540582
-0.00199938481
-0.00196393302
-0.00192899833
-0.00189453443
-0.00186050056
-0.00182686115
-0.00179358538
-0.00176064673
-0.0017280225
-0.0016956933
-0.0016636426
-0.00163185627
-0.00160032219
-0.00156902996
-0.00153797066
-0.00150713674
-0.00147652181
-0.00144612021
-0.00141592631
-0.00138593366
-0.00135613073
-0.00132654089
-0.00129712069
-0.00126787819
-0.00123881473
-0.00120992696
-0.00118121077
-0.00115266335
-0.00112428197
-0.0010960638
-0.00106800609
-0.00104010596
-0.00101236042
-0.000984766367
-0.00095732065
-0.000930020029
-0.000902861192
-0.000875840754
-0.000848955245
-0.000822201086
-0.000795574603
-0.000769072049
-0.000742689608
-0.00071642341
-0.00069026955
-0.000664224097
-0.000638283105
-0.000612442622
-0.000586698694
-0.000561047362
-0.000535484671
-0.000510006681
-0.000484609452
-0.000459289055
-0.000434041578
-0.000408863115
-0.00038374977
-0.000358697665
-0.000333702929
-0.000308761697
-0.00028387012
-0.000259024359
-0.000234220573
-0.000209454932
-0.000184723588
-0.000160022755
-0.000135348369
-0.000110697264
-8.60630971e-05
-6.14509779e-05
-3.68297926e-05
-1.23202465e-05
-0.004852882
-0.00485423224
-0.00485745442
-0.00486249761
-0.00486918053
-0.0048774567
-0.00488738289
-0.00489897801
-0.00491222401
-0.00492710311
-0.00494360455
-0.00496171169
-0.00498139722
-0.00500262569
-0.0050253552
-0.00504953688
-0.00507511473
-0.00510202616
-0.00513020246
-0.00515956913
-0.00519005182
-0.00522159237
-0.00525406047
-0.00528734327
-0.00532133185
-0.00535590523
-0.00539093225
-0.00542627173
-0.00546177155
-0.00549726786
-0.00553258455
-0.00556753326
-0.00560191409
-0.0056355168
-0.00566812303
-0.00569951011
-0.00572945218
-0.00575771382
-0.00578404942
-0.00580821786
-0.00582998647
-0.00584912552
-0.00586541966
-0.00587866612
-0.00588866989
-0.00589524957
-0.00589824386
-0.00589751369
-0.00589294353
-0.00588444332
-0.00587195032
-0.00585543021
-0.00583487759
-0.00581031585
-0.00578179635
-0.00574939712
-0.00571322116
-0.00567339427
-0.00563006266
-0.00558339017
-0.00553355538
-0.00548074848
-0.0054251682
-0.00536701873
-0.00530650682
-0.0052438391
-0.0051792196
-0.00511284768
-0.00504491621
-0.00497561013
-0.00490510536
-0.00483356808
-0.00476115425
-0.00468800951
-0.00461426933
-0.00454005931
-0.00446549567
-0.00439068591
-0.00431572945
-0.00424071841
-0.00416573851
-0.00409086998
-0.00401618854
-0.00394176636
-0.00386767361
-0.00379398004
-0.00372075633
-0.00364807283
-0.00357600279
-0.00350462337
-0.00343401532
-0.00336426311
-0.00329545485
-0.0032276817
-0.00316103661
-0.00309561277
-0.00303150155
-0.00296878997
-0.00290755798
-0.00284787571
-0.0027898006
-0.00273337511
-0.00267862474
-0.00262555691
-0.00257416044
-0.00252440608
-0.00247624765
-0.00242962395
-0.00238446119
-0.00234067574
-0.002298177
-0.00225687029
-0.00221665952
-0.00217744954
-0.00213914819
-0.00210166789
-0.0020649268
-0.00202884968
-0.0019933683
-0.00195842163
-0.00192395576
-0.00188992357
-0.00185628437
-0.00182300334
-0.00179005096
-0.00175740242
-0.001725037
-0.00169293748
-0.00166108963
-0.00162948168
-0.00159810395
-0.00156694838
-0.00153600813
-0.00150527722
-0.00147475032
-0.00144442274
-0.001414289
-0.00138434378
-0.0013546075
-0.00132503363
-0.00129565205
-0.00126644852
-0.00123742078
-0.0012085673
-0.00117988472
-0.00115137012
-0.00112302091
-0.00109483437
-0.00106680775
-0.00103893826
-0.00101122306
-0.000983659181
-0.000956243549
-0.00092897297
-0.00090184412
-0.000874853566
-0.000847997792
-0.000821273192
-0.00079467609
-0.000768202754
-0.000741849403
-0.000715612206
-0.000689487297
-0.000663470782
-0.00063755874
-0.000611747238
-0.000586032329
-0.000560410057
-0.00053487646
-0.000509427586
-0.000484059473
-0.00045876817
-0.000433549735
-0.000408400231
-0.000383315734
-0.000358292338
-0.000333326145
-0.00030841327
-0.000283549848
-0.000258732024
-0.000233955943
-0.000209217762
-0.000184513619
-0.000159839709
-0.000135191954
-0.000110567171
-8.5959081e-05
-6.13729286e-05
-3.67789898e-05
-1.22994903e-05
-0.00483595738
-0.00483733717
-0.00484063014
-0.00484578178
-0.00485260861
-0.00486107784
-0.00487123513
-0.00488309385
-0.00489663636
-0.00491184724
-0.00492871688
-0.00494723062
-0.00496736422
-0.00498908638
-0.00501236038
-0.00503714349
-0.00506338627
-0.0050910327
-0.00512002029
-0.0051502796
-0.00518173175
-0.00521428149
-0.00524784382
-0.00528231808
-0.00531759133
-0.00535354084
-0.00539003399
-0.00542692753
-0.00546406637
-0.00550128267
-0.00553839525
-0.00557520961
-0.0056115185
-0.00564710308
-0.00568173364
-0.00571516881
-0.00574715772
-0.0057774479
-0.00580579143
-0.00583193834
-0.00585563156
-0.00587662092
-0.00589466332
-0.00590952527
-0.00592099061
-0.00592886457
-0.00593297275
-0.00593316206
-0.00592930449
-0.00592130044
-0.00590908091
-0.0058926089
-0.0058718801
-0.00584692261
-0.00581779602
-0.00578458988
-0.00574742165
-0.0057064342
-0.00566179285
-0.00561368215
-0.00556230232
-0.0055078656
-0.0054505926
-0.00539070868
-0.00532844059
-0.00526401337
-0.00519764761
-0.00512955703
-0.00505994666
-0.00498901128
-0.00491693436
-0.00484388749
-0.00477002999
-0.00469550895
-0.00462045956
-0.00454500553
-0.00446925982
-0.00439332549
-0.00431729662
-0.00424125936
-0.00416529303
-0.00408947131
-0.00401386352
-0.00393853614
-0.00386355429
-0.00378898233
-0.0037148862
-0.00364133259
-0.00356839321
-0.00349614522
-0.00342467089
-0.00335405826
-0.00328440139
-0.00321579978
-0.00314835696
-0.0030821787
-0.00301737039
-0.00295403389
-0.00289226398
-0.00283214457
-0.00277374505
-0.00271711699
-0.00266229153
-0.00260927778
-0.00255806214
-0.00250860896
-0.0024608621
-0.00241474747
-0.00237017625
-0.00232704849
-0.00228525679
-0.00224468999
-0.00220523644
-0.00216678687
-0.00212923673
-0.00209248798
-0.00205645035
-0.00202104207
-0.00198619026
-0.00195183083
-0.00191790825
-0.00188437498
-0.00185119091
-0.00181832254
-0.00178574225
-0.00175342754
-0.00172136028
-0.00168952598
-0.00165791318
-0.00162651283
-0.0015953178
-0.00156432242
-0.0015335223
-0.00150291431
-0.0014724966
-0.0014422699
-0.00141223755
-0.00138238231
-0.00135270534
-0.00132320086
-0.00129387537
-0.00126472681
-0.00123575038
-0.00120694436
-0.00117830677
-0.00114983527
-0.00112152765
-0.00109338159
-0.00106539459
-0.00103756407
-0.00100988728
-0.000982361364
-0.000954983327
-0.00092775005
-0.000900658275
-0.000873704615
-0.000846885576
-0.000820197566
-0.000793636916
-0.000767199892
-0.000740882705
-0.000714681513
-0.00068859244
-0.00066261158
-0.000636735004
-0.000610958769
-0.000585278925
-0.000559691508
-0.000534192555
-0.000508778112
-0.000483444224
-0.000458186943
-0.00043300234
-0.000407886488
-0.000382835471
-0.00035784539
-0.000332912349
-0.000308032461
-0.000283201849
-0.000258416644
-0.000233672973
-0.000208966971
-0.000184294756
-0.000159652508
-0.000135036131
-0.000110442447
-8.58651234e-05
-6.13093724e-05
-3.67442995e-05
-1.22913945e-05
-0.00481677699
-0.00481818702
-0.00482155044
-0.00482681152
-0.004833786
-0.0048424476
-0.0048528389
-0.00486496875
-0.00487882081
-0.0048943823
-0.00491164656
-0.00493060222
-0.00495122871
-0.00497349869
-0.00499737965
-0.005022833
-0.00504981329
-0.00507826842
-0.00510813989
-0.00513936255
-0.00517186267
-0.00520556735
-0.00524038093
-0.00527620234
-0.00531292154
-0.00535041802
-0.00538856058
-0.0054272061
-0.00546619815
-0.00550536593
-0.0055445234
-0.00558346904
-0.00562198597
-0.00565984261
-0.00569679451
-0.00573258792
-0.00576696109
-0.00579964298
-0.00583035372
-0.00585881027
-0.00588473845
-0.00590786476
-0.00592792072
-0.00594465387
-0.00595782797
-0.00596722199
-0.00597263705
-0.00597390157
-0.0059708732
-0.00596344135
-0.00595152996
-0.00593509924
-0.00591414642
-0.00588870549
-0.00585884619
-0.00582467223
-0.00578631883
-0.00574394974
-0.0056977537
-0.0056479405
-0.00559473675
-0.0055383815
-0.00547912186
-0.00541720878
-0.00535289306
-0.00528642184
-0.00521803539
-0.00514796454
-0.00507642857
-0.00500363362
-0.00492977168
-0.00485502003
-0.00477954109
-0.00470348268
-0.00462697868
-0.00455014977
-0.00447310446
-0.00439594026
-0.00431874482
-0.00424159718
-0.00416456918
-0.00408772671
-0.00401113122
-0.00393484106
-0.00385891309
-0.00378340496
-0.00370837595
-0.00363388974
-0.00356001361
-0.00348682212
-0.00341439832
-0.00334283389
-0.00327222946
-0.00320269436
-0.00313434509
-0.00306730309
-0.00300169165
-0.0029376318
-0.00287523765
-0.00281461136
-0.00275583814
-0.0026989818
-0.00264408109
-0.00259114749
-0.00254016431
-0.00249108752
-0.00244384797
-0.00239835482
-0.00235449988
-0.00231216234
-0.00227121364
-0.00223152212
-0.0021929571
-0.00215539232
-0.00211870869
-0.00208279625
-0.00204755538
-0.00201289748
-0.00197874508
-0.00194503151
-0.00191170032
-0.00187870448
-0.0018460054
-0.00181357198
-0.00178137956
-0.00174940897
-0.00171764562
-0.00168607867
-0.00165470027
-0.00162350497
-0.00159248915
-0.00156165049
-0.00153098739
-0.00150049846
-0.00147018165
-0.00144003545
-0.00141008112
-0.00138029514
-0.00135067695
-0.00132123017
-0.00129195363
-0.0012628493
-0.00123391557
-0.00120515066
-0.00117655304
-0.00114812081
-0.00111985197
-0.00109174436
-0.00106379566
-0.00103600337
-0.00100836484
-0.000980877242
-0.000953537579
-0.000926342719
-0.000899289394
-0.000872374227
-0.000845593752
-0.000818944402
-0.000792422525
-0.000766024392
-0.000739746214
-0.000713584142
-0.000687534286
-0.000661592726
-0.000635755514
-0.000610018689
-0.000584378282
-0.00055883031
-0.000533370792
-0.000507995753
-0.000482701215
-0.000457483207
-0.000432337774
-0.000407260962
-0.00038224883
-0.000357297457
-0.000332402928
-0.000307561343
-0.000282768816
-0.000258021473
-0.00023331544
-0.000208646851
-0.000184011825
-0.000159406544
-0.000134826919
-0.000110269771
-8.57288278e-05
-6.1209372e-05
-3.66815067e-05
-1.22676111e-05
-0.00479529157
-0.00479673252
-0.00480016903
-0.00480554524
-0.00481267504
-0.00482153218
-0.00483215981
-0.0048445689
-0.00485874403
-0.00487467416
-0.00489235553
-0.00491178017
-0.00493293148
-0.00495578663
-0.00498031814
-0.00500649299
-0.00503427179
-0.00506360889
-0.0050944524
-0.00512674421
-0.00516042248
-0.00519539151
-0.00523158851
-0.00526890685
-0.00530724024
-0.00534647071
-0.0053864679
-0.00542708835
-0.00546817404
-0.00550955094
-0.00555102791
-0.00559239608
-0.0056334291
-0.00567388414
-0.00571350276
-0.00575201179
-0.00578912571
-0.00582454988
-0.00585798313
-0.00588912302
-0.00591766112
-0.00594329106
-0.00596571752
-0.00598465515
-0.00599983533
-0.00601101191
-0.00601796357
-0.00602049675
-0.00601844996
-0.00601169799
-0.00600015515
-0.00598377736
-0.00596256318
-0.00593655358
-0.00590583065
-0.00587051547
-0.0058307651
-0.00578676889
-0.00573874428
-0.00568693191
-0.00563159058
-0.00557299189
-0.00551141501
-0.00544714164
-0.00538045136
-0.00531161743
-0.00524090321
-0.00516855921
-0.00509482088
-0.00501990698
-0.00494401866
-0.00486733912
-0.00479003374
-0.00471225067
-0.00463412176
-0.00455576365
-0.00447727915
-0.00439875864
-0.00432028159
-0.00424191807
-0.00416373034
-0.0040857744
-0.00400810164
-0.00393076061
-0.00385379856
-0.00377726415
-0.00370120848
-0.00362568839
-0.00355076531
-0.00347651076
-0.00340300807
-0.00333035238
-0.00325865153
-0.0031880263
-0.00311860888
-0.00305054033
-0.0029839667
-0.00291903386
-0.00285588138
-0.00279463569
-0.00273540326
-0.0026782644
-0.00262326825
-0.00257042956
-0.0025197276
-0.00247110724
-0.0024244821
-0.00237973936
-0.00233674561
-0.00229535328
-0.00225540702
-0.00221674962
-0.00217922712
-0.00214269297
-0.00210701113
-0.00207205811
-0.00203772419
-0.00200391375
-0.00197054506
-0.00193754959
-0.00190487095
-0.00187246369
-0.00184029199
-0.00180832829
-0.00177655203
-0.00174494846
-0.00171350748
-0.00168222275
-0.00165109074
-0.00162011005
-0.00158928071
-0.00155860373
-0.00152808052
-0.00149771258
-0.00146750054
-0.00143743176
-0.00140757289
-0.00137787203
-0.00134832669
-0.00131894729
-0.00128973378
-0.00126068686
-0.00123180679
-0.00120309291
-0.00117454427
-0.00114615963
-0.00111793742
-0.00108987581
-0.00106197269
-0.00103422573
-0.00100663239
-0.000979189947
-0.000951895478
-0.000924745921
-0.000897738049
-0.000870868485
-0.000844133732
-0.000817530184
-0.000791054147
-0.000764701861
-0.000738469509
-0.00071235322
-0.000686349087
-0.000660453171
-0.000634661508
-0.000608970122
-0.000583375025
-0.00055787222
-0.00053245771
-0.000507127508
-0.000481877628
-0.000456704094
-0.000431602948
-0.000406570238
-0.000381602026
-0.00035669439
-0.000331843415
-0.000307045196
-0.00028229584
-0.000257591462
-0.000232928178
-0.000208302111
-0.000183709375
-0.000159146146
-0.000134608339
-0.000110092791
-8.55932204e-05
-6.11148971e-05
-3.6627237e-05
-1.22518093e-05
-0.00477145145
-0.00477292412
-0.00477643514
-0.00478192834
-0.00478921544
-0.00479827087
-0.00480913964
-0.00482183469
-0.00483634262
-0.00485265511
-0.00487077198
-0.00489068954
-0.0049123959
-0.00493587351
-0.00496110053
-0.00498804993
-0.00501668856
-0.00504697713
-0.0050788702
-0.0051123154
-0.00514725272
-0.00518360379
-0.0052213113
-0.00526026474
-0.0053003653
-0.00534149957
-0.00538353973
-0.0054263435
-0.00546975229
-0.00551358947
-0.00555765903
-0.00560174475