/*--------------------------------*- C++ -*----------------------------------*\
| =========                 |                                                 |
| \\      /  F ield         | OpenFOAM: The Open Source CFD Toolbox           |
|  \\    /   O peration     | Version:  v2012                                 |
|   \\  /    A nd           | Website:  www.openfoam.com                      |
|    \\/     M anipulation  |                                                 |
\*---------------------------------------------------------------------------*/
FoamFile
{
    version     2.0;
    format      ascii;
    class       surfaceScalarField;
    location    "2.64";
    object      phi;
}
// * * * * * * * * * * * * * * * * * * * * * * * * * * * * * * * * * * * * * //

dimensions      [0 3 -1 0 0 0 0];
oriented        oriented;


internalField   nonuniform List<scalar> 
56481
(
6.6671335e-07
-9.25042105e-11
6.66804692e-07
-1.83322552e-10
6.66900158e-07
-1.60541935e-10
6.66962643e-07
-1.95940878e-11
6.669791e-07
2.10767866e-10
6.66916719e-07
5.09833652e-10
6.66765811e-07
8.31686748e-10
6.66528823e-07
1.14086864e-09
6.66217505e-07
1.40667702e-09
6.65849933e-07
1.60541294e-09
6.65447604e-07
1.72232131e-09
6.65032883e-07
1.75259441e-09
6.64627027e-07
1.70026965e-09
6.64249041e-07
1.575123e-09
6.63915145e-07
1.38976341e-09
6.63638131e-07
1.15947131e-09
6.63425862e-07
9.04868064e-10
6.63279063e-07
6.54493887e-10
6.6318945e-07
4.43661499e-10
6.63139402e-07
3.08217151e-10
6.63103689e-07
2.75385736e-10
6.63052795e-07
3.55807001e-10
6.62958323e-07
5.40451422e-10
6.62799865e-07
8.03420404e-10
6.62567481e-07
1.10789187e-09
6.62261423e-07
1.41380005e-09
6.61890934e-07
1.6848985e-09
6.61471706e-07
1.89313755e-09
6.61022898e-07
2.02052886e-09
6.60564557e-07
2.05914129e-09
6.60115821e-07
2.01001404e-09
6.59693808e-07
1.88177468e-09
6.59312863e-07
1.68955409e-09
6.58983743e-07
1.45436956e-09
6.5871252e-07
1.20253062e-09
6.58499211e-07
9.64600376e-10
6.58336477e-07
7.7309059e-10
6.58209035e-07
6.58370367e-10
6.58094832e-07
6.4346689e-10
6.57968795e-07
7.38636915e-10
6.57807912e-07
9.37717289e-10
6.57595382e-07
1.21815421e-09
6.57322973e-07
1.54505805e-09
6.569916e-07
1.87846856e-09
6.56610053e-07
2.18209831e-09
6.5619213e-07
2.43097801e-09
6.55752967e-07
2.61559359e-09
6.55305633e-07
2.7413879e-09
6.54858906e-07
2.82421236e-09
6.54416664e-07
2.88369762e-09
6.5397872e-07
2.93702445e-09
6.53542507e-07
2.99504622e-09
6.53104861e-07
3.06148425e-09
6.52663295e-07
3.1346137e-09
6.52216533e-07
3.21007217e-09
6.51764413e-07
3.28339708e-09
6.51307454e-07
3.35145683e-09
6.50846408e-07
3.41268264e-09
6.50381977e-07
3.46653008e-09
6.49914745e-07
3.51274862e-09
6.49445243e-07
3.55086804e-09
6.48974059e-07
3.58003121e-09
6.48501933e-07
3.59908337e-09
6.48029794e-07
3.60675573e-09
6.47558781e-07
3.60180939e-09
6.47090235e-07
3.58310441e-09
6.46625689e-07
3.54961981e-09
6.46166859e-07
3.50043693e-09
6.45715648e-07
3.43473709e-09
6.45274143e-07
3.35180742e-09
6.44844622e-07
3.25105042e-09
6.4442954e-07
3.13200576e-09
6.44031536e-07
2.99436321e-09
6.43653424e-07
2.83796627e-09
6.432982e-07
2.66282017e-09
6.42969049e-07
2.46908911e-09
6.42669353e-07
2.25708678e-09
6.42402692e-07
2.02726555e-09
6.42172869e-07
1.78018555e-09
6.4198399e-07
1.51645166e-09
6.41840302e-07
1.23661064e-09
6.41744885e-07
9.41105611e-10
6.41699562e-07
6.30855059e-10
6.41704221e-07
3.07844209e-10
6.41753239e-07
-2.36908528e-11
6.41872288e-07
-3.66438313e-10
6.42058203e-07
-7.12877642e-10
6.42311736e-07
-1.06589125e-09
6.42633381e-07
-1.42340106e-09
6.43023508e-07
-1.78325257e-09
6.43482097e-07
-2.1430708e-09
6.44008544e-07
-2.50007193e-09
6.44601597e-07
-2.85122297e-09
6.45259303e-07
-3.19333719e-09
6.45978966e-07
-3.52310507e-09
6.46757162e-07
-3.8371475e-09
6.47589763e-07
-4.13210436e-09
6.48471998e-07
-4.40472922e-09
6.49398506e-07
-4.65198334e-09
6.50363409e-07
-4.87114251e-09
6.5136039e-07
-5.05988847e-09
6.52382777e-07
-5.21637468e-09
6.53423649e-07
-5.33928774e-09
6.54475948e-07
-5.42787371e-09
6.55532603e-07
-5.48195446e-09
6.56586655e-07
-5.50190909e-09
6.57631384e-07
-5.48866248e-09
6.58660416e-07
-5.44363001e-09
6.59667824e-07
-5.36867349e-09
6.60648207e-07
-5.2660301e-09
6.61596751e-07
-5.13824457e-09
6.62509266e-07
-4.98808261e-09
6.63382212e-07
-4.81846073e-09
6.64212701e-07
-4.6323697e-09
6.64998485e-07
-4.43279632e-09
6.65737935e-07
-4.22266738e-09
6.66429997e-07
-4.00479402e-09
6.67074155e-07
-3.78182016e-09
6.67670372e-07
-3.55619246e-09
6.68219042e-07
-3.33013098e-09
6.68720938e-07
-3.10560621e-09
6.69177166e-07
-2.88433797e-09
6.69589107e-07
-2.66778872e-09
6.69958349e-07
-2.45716262e-09
6.70286623e-07
-2.25340895e-09
6.70575776e-07
-2.05724013e-09
6.70827822e-07
-1.86914633e-09
6.71044997e-07
-1.68943809e-09
6.71229722e-07
-1.51829263e-09
6.71384455e-07
-1.35577421e-09
6.71511573e-07
-1.20181904e-09
6.71613369e-07
-1.05625364e-09
6.71692141e-07
-9.18887203e-10
6.71750166e-07
-7.89496704e-10
6.71789641e-07
-6.67846026e-10
6.71812703e-07
-5.53740841e-10
6.71821459e-07
-4.47027465e-10
6.71817977e-07
-3.47583424e-10
6.71804203e-07
-2.55362122e-10
6.7178188e-07
-1.70453533e-10
6.71752305e-07
-9.29692487e-11
6.71716009e-07
-2.31527566e-11
6.71671369e-07
3.99553809e-11
6.71618575e-07
9.54736843e-11
6.71558461e-07
1.44540341e-10
6.71491994e-07
1.87946026e-10
6.71420073e-07
2.26172367e-10
6.71343493e-07
2.59739667e-10
6.71262986e-07
2.89143227e-10
6.71179229e-07
3.14803076e-10
6.7109285e-07
3.37085436e-10
6.71004422e-07
3.56319089e-10
6.7091447e-07
3.72797839e-10
6.70823469e-07
3.86782963e-10
6.70731846e-07
3.98505227e-10
6.70639979e-07
4.08166786e-10
6.70548195e-07
4.15945781e-10
6.70456779e-07
4.2200096e-10
6.70365971e-07
4.26475259e-10
6.70275976e-07
4.29500114e-10
6.70186967e-07
4.3119771e-10
6.70099095e-07
4.3168306e-10
6.70012488e-07
4.31064019e-10
6.69927258e-07
4.29442767e-10
6.69843507e-07
4.26914791e-10
6.69761322e-07
4.23569604e-10
6.69680784e-07
4.19490086e-10
6.69601963e-07
4.14752677e-10
6.69524923e-07
4.09426477e-10
6.69449719e-07
4.03573848e-10
6.69376398e-07
3.97250537e-10
6.69305e-07
3.90505393e-10
6.69235559e-07
3.83381544e-10
6.69168098e-07
3.7591707e-10
6.69102638e-07
3.68145191e-10
6.6903919e-07
3.60095633e-10
6.68977765e-07
3.51795285e-10
6.68918367e-07
3.43268172e-10
6.68860999e-07
3.34536403e-10
6.68805664e-07
3.25619899e-10
6.68752365e-07
3.16536608e-10
6.68701107e-07
3.07301489e-10
6.68651898e-07
2.97926594e-10
6.68604752e-07
2.88418457e-10
6.68559691e-07
2.78782386e-10
6.68516751e-07
2.68986749e-10
6.68475974e-07
2.59108268e-10
6.6843753e-07
2.48602741e-10
6.68401277e-07
2.39530355e-10
2.21784644e-10
6.6671086e-07
-1.36764259e-10
6.66817795e-07
-2.90257324e-10
6.66945143e-07
-2.87890061e-10
6.67053451e-07
-1.2790227e-10
6.67099845e-07
1.64374177e-10
6.67059173e-07
5.5050581e-10
6.66915451e-07
9.75408386e-10
6.66669441e-07
1.38687881e-09
6.66334423e-07
1.74169452e-09
6.65931541e-07
2.00829486e-09
6.65486132e-07
2.16773068e-09
6.65024792e-07
2.21393478e-09
6.64573058e-07
2.15200335e-09
6.64154018e-07
1.99416293e-09
6.63787715e-07
1.75606645e-09
6.63490441e-07
1.45674578e-09
6.63272946e-07
1.12236215e-09
6.63137598e-07
7.89842273e-10
6.63075722e-07
5.05537104e-10
6.63066874e-07
3.17066051e-10
6.63081129e-07
2.61130063e-10
6.63083543e-07
3.53393608e-10
6.63039579e-07
5.84415411e-10
6.62921485e-07
9.21513926e-10
6.6271292e-07
1.31645687e-09
6.62410717e-07
1.71600277e-09
6.62024007e-07
2.07160886e-09
6.61571319e-07
2.34582516e-09
6.61076871e-07
2.51497779e-09
6.60567046e-07
2.56896575e-09
6.60067673e-07
2.50938718e-09
6.59602186e-07
2.34726117e-09
6.59190377e-07
2.10136349e-09
6.58847208e-07
1.79753831e-09
6.58581283e-07
1.46845622e-09
6.58393125e-07
1.15275815e-09
6.58273816e-07
8.9239961e-10
6.58204728e-07
7.27458593e-10
6.58159153e-07
6.89041363e-10
6.58105586e-07
7.92204245e-10
6.58012607e-07
1.03069637e-09
6.5785474e-07
1.37602056e-09
6.57617397e-07
1.78240155e-09
6.57299182e-07
2.19668358e-09
6.56910956e-07
2.57032432e-09
6.56472039e-07
2.86989516e-09
6.56004762e-07
3.08287033e-09
6.55529041e-07
3.21710925e-09
6.55058529e-07
3.29472393e-09
6.54599251e-07
3.34297581e-09
6.54150639e-07
3.38563629e-09
6.5370811e-07
3.43757499e-09
6.53265951e-07
3.50364365e-09
6.52819486e-07
3.58107818e-09
6.52366058e-07
3.66350056e-09
6.51904919e-07
3.74453558e-09
6.51436534e-07
3.81984178e-09
6.50961802e-07
3.88741512e-09
6.5048155e-07
3.9467821e-09
6.49996381e-07
3.99791774e-09
6.49506766e-07
4.04048271e-09
6.49013228e-07
4.07356913e-09
6.48516487e-07
4.09582424e-09
6.48017519e-07
4.10572388e-09
6.47517553e-07
4.101776e-09
6.47018069e-07
4.0825884e-09
6.46520777e-07
4.04691159e-09
6.46027606e-07
3.99360786e-09
6.455407e-07
3.92164334e-09
6.45062415e-07
3.83009232e-09
6.44595317e-07
3.71814768e-09
6.44142177e-07
3.5851466e-09
6.43705954e-07
3.43058596e-09
6.43289794e-07
3.25412641e-09
6.42897012e-07
3.05560207e-09
6.42531082e-07
2.83501913e-09
6.42195623e-07
2.59254575e-09
6.41894382e-07
2.32850676e-09
6.41631196e-07
2.04337116e-09
6.41409881e-07
1.73776646e-09
6.41234043e-07
1.41244936e-09
6.41107156e-07
1.0679924e-09
6.41032935e-07
7.05075491e-10
6.41016098e-07
3.24681025e-10
6.41062814e-07
-7.04062749e-11
6.41171399e-07
-4.75023787e-10
6.41348227e-07
-8.89705462e-10
6.41595268e-07
-1.31293171e-09
6.41914495e-07
-1.74262811e-09
6.4230709e-07
-2.17584796e-09
6.42773489e-07
-2.60946996e-09
6.43313476e-07
-3.04005885e-09
6.43926085e-07
-3.46383219e-09
6.44609523e-07
-3.8767746e-09
6.45361137e-07
-4.27471965e-09
6.46177414e-07
-4.65342413e-09
6.47053989e-07
-5.00867931e-09
6.47985689e-07
-5.33642947e-09
6.48966591e-07
-5.63288516e-09
6.49990099e-07
-5.89465087e-09
6.51049047e-07
-6.11883653e-09
6.52135815e-07
-6.30314181e-09
6.53242465e-07
-6.44593773e-09
6.54360897e-07
-6.54630629e-09
6.55483009e-07
-6.60406596e-09
6.56600851e-07
-6.61975108e-09
6.57706784e-07
-6.59459547e-09
6.58793613e-07
-6.5304595e-09
6.59854707e-07
-6.42976786e-09
6.60884091e-07
-6.29541362e-09
6.61876513e-07
-6.13066614e-09
6.62827487e-07
-5.93905718e-09
6.63733314e-07
-5.72428806e-09
6.64591076e-07
-5.49013086e-09
6.65398609e-07
-5.24032962e-09
6.66154471e-07
-4.97852978e-09
6.66857887e-07
-4.70821008e-09
6.67508688e-07
-4.4326209e-09
6.68107246e-07
-4.1547501e-09
6.68654405e-07
-3.87729029e-09
6.69151412e-07
-3.60261313e-09
6.69599844e-07
-3.33277014e-09
6.70001548e-07
-3.06949229e-09
6.70358591e-07
-2.81420541e-09
6.70673222e-07
-2.56804083e-09
6.70947834e-07
-2.33185139e-09
6.71184905e-07
-2.10621808e-09
6.71386949e-07
-1.89148161e-09
6.71556488e-07
-1.68783137e-09
6.71696117e-07
-1.49540343e-09
6.71808387e-07
-1.31408945e-09
6.71895691e-07
-1.14355777e-09
6.71960346e-07
-9.83542025e-10
6.72004607e-07
-8.33757084e-10
6.72030672e-07
-6.93911775e-10
6.72040646e-07
-5.6371476e-10
6.7203642e-07
-4.42801543e-10
6.7201965e-07
-3.30812714e-10
6.71991679e-07
-2.27391438e-10
6.7195356e-07
-1.32334967e-10
6.71906172e-07
-4.55813004e-11
6.71850974e-07
3.20461354e-11
6.71789794e-07
1.01135019e-10
6.71722697e-07
1.62570774e-10
6.71650227e-07
2.17010529e-10
6.71572932e-07
2.65240731e-10
6.71491381e-07
3.07723601e-10
6.71406195e-07
3.44925306e-10
6.71317987e-07
3.7735145e-10
6.71227327e-07
4.05462891e-10
6.71134744e-07
4.2966802e-10
6.71040726e-07
4.50337838e-10
6.70945715e-07
4.67808676e-10
6.70850114e-07
4.82383374e-10
6.70754287e-07
4.94332899e-10
6.70658556e-07
5.03898004e-10
6.70563208e-07
5.11293763e-10
6.70468495e-07
5.16713848e-10
6.70374637e-07
5.2033343e-10
6.70281824e-07
5.22313167e-10
6.7019022e-07
5.2280119e-10
6.70099968e-07
5.21935399e-10
6.70011188e-07
5.19843522e-10
6.69923986e-07
5.1664508e-10
6.6983845e-07
5.12450399e-10
6.69754658e-07
5.07361783e-10
6.69672675e-07
5.01473071e-10
6.69592558e-07
4.94870238e-10
6.69514353e-07
4.87630665e-10
6.69438103e-07
4.79824172e-10
6.6936384e-07
4.71513346e-10
6.69291592e-07
4.62753294e-10
6.69221381e-07
4.53592981e-10
6.69153222e-07
4.44075881e-10
6.69087127e-07
4.34239973e-10
6.69023104e-07
4.24119127e-10
6.68961155e-07
4.13743661e-10
6.68901283e-07
4.03140154e-10
6.68843487e-07
3.92332464e-10
6.68787766e-07
3.81341398e-10
6.68734117e-07
3.70185026e-10
6.68682541e-07
3.58877623e-10
6.68633038e-07
3.47430108e-10
6.68585609e-07
3.35847244e-10
6.68540256e-07
3.24135208e-10
6.68496985e-07
3.12257804e-10
6.68455756e-07
3.00337203e-10
6.68416616e-07
2.87742603e-10
6.68378905e-07
2.77241815e-10
2.56830726e-10
6.66711499e-07
-1.81563198e-10
6.66812911e-07
-3.9166908e-10
6.66931993e-07
-4.06972225e-10
6.67032013e-07
-2.27922191e-10
6.67072516e-07
1.23871172e-10
6.67026962e-07
5.9605986e-10
6.6688239e-07
1.11998023e-09
6.6663972e-07
1.62954901e-09
6.66311078e-07
2.07033641e-09
6.65916079e-07
2.40329347e-09
6.65478619e-07
2.60519064e-09
6.6502414e-07
2.66841445e-09
6.64577391e-07
2.59875177e-09
6.64160962e-07
2.41059185e-09
6.63794551e-07
2.122478e-09
6.63494234e-07
1.7570621e-09
6.63270851e-07
1.34574529e-09
6.6312739e-07
9.3330319e-10
6.63056399e-07
5.76528103e-10
6.63038756e-07
3.3470925e-10
6.63044662e-07
2.55223753e-10
6.63038516e-07
3.59540471e-10
6.6298685e-07
6.36081369e-10
6.62863897e-07
1.04446613e-09
6.62654816e-07
1.5255379e-09
6.62356805e-07
2.01401408e-09
6.619782e-07
2.45021405e-09
6.61536035e-07
2.7879903e-09
6.61052855e-07
2.99815733e-09
6.60553607e-07
3.06821405e-09
6.60063091e-07
2.99990275e-09
6.59604094e-07
2.80625799e-09
6.59195998e-07
2.50945981e-09
6.58853539e-07
2.13999708e-09
6.585854e-07
1.73659556e-09
6.58392632e-07
1.34552641e-09
6.58267282e-07
1.01774914e-09
6.58191863e-07
8.02877616e-10
6.58140637e-07
7.40267104e-10
6.58083243e-07
8.49598252e-10
6.57989793e-07
1.12414694e-09
6.57836075e-07
1.52973807e-09
6.57607674e-07
2.01080308e-09
6.57302088e-07
2.50226923e-09
6.56928202e-07
2.94421066e-09
6.56503143e-07
3.29495434e-09
6.56047464e-07
3.53854882e-09
6.55580112e-07
3.68446113e-09
6.55114657e-07
3.76017924e-09
6.54657719e-07
3.79991345e-09
6.54209652e-07
3.83370377e-09
6.53766747e-07
3.88048036e-09
6.53323871e-07
3.94651934e-09
6.52876558e-07
4.02839123e-09
6.52422049e-07
4.11800952e-09
6.51959332e-07
4.20725216e-09
6.51488579e-07
4.29059529e-09
6.51010453e-07
4.36554073e-09
6.50525633e-07
4.43160195e-09
6.50034639e-07
4.48891241e-09
6.49537893e-07
4.53722829e-09
6.49035882e-07
4.57557972e-09
6.48529294e-07
4.60241231e-09
6.48019103e-07
4.61591533e-09
6.4750659e-07
4.61428848e-09
6.46993308e-07
4.59587061e-09
6.46481056e-07
4.55916391e-09
6.45971867e-07
4.502797e-09
6.45468002e-07
4.42550837e-09
6.44971946e-07
4.32614837e-09
6.44486401e-07
4.2036926e-09
6.44014275e-07
4.05727237e-09
6.43558669e-07
3.88619164e-09
6.43122866e-07
3.68992973e-09
6.42710318e-07
3.4681499e-09
6.4232464e-07
3.22069694e-09
6.41969598e-07
2.94758787e-09
6.41649092e-07
2.64901245e-09
6.41367136e-07
2.32532732e-09
6.4112786e-07
1.97704272e-09
6.40935512e-07
1.60479771e-09
6.4079413e-07
1.20937445e-09
6.40706849e-07
7.92356519e-10
6.40675324e-07
3.56205868e-10
6.4070347e-07
-9.85520296e-11
6.40798307e-07
-5.69860988e-10
6.40963349e-07
-1.05474808e-09
6.41201298e-07
-1.55087992e-09
6.41514037e-07
-2.05536798e-09
6.4190315e-07
-2.56496025e-09
6.42369574e-07
-3.07589425e-09
6.42913463e-07
-3.58394786e-09
6.43534144e-07
-4.08451335e-09
6.44230053e-07
-4.57268325e-09
6.44998675e-07
-5.04334181e-09
6.45836518e-07
-5.49126725e-09
6.46739109e-07
-5.91127039e-09
6.47701021e-07
-6.2983418e-09
6.48715931e-07
-6.64779486e-09
6.49776707e-07
-6.95542651e-09
6.5087553e-07
-7.21765974e-09
6.52004042e-07
-7.43165391e-09
6.53153515e-07
-7.59541058e-09
6.54315036e-07
-7.70782713e-09
6.554797e-07
-7.76872982e-09
6.56638797e-07
-7.77884813e-09
6.57783991e-07
-7.73978986e-09
6.58907478e-07
-7.65394594e-09
6.60002115e-07
-7.52440534e-09
6.6106153e-07
-7.35482891e-09
6.62080192e-07
-7.14932746e-09
6.6305345e-07
-6.91231507e-09
6.6397755e-07
-6.64838877e-09
6.64849623e-07
-6.36220321e-09
6.65667641e-07
-6.05834801e-09
6.66430372e-07
-5.74126057e-09
6.67137306e-07
-5.41514417e-09
6.67788581e-07
-5.08389559e-09
6.68384898e-07
-4.75106771e-09
6.68927445e-07
-4.41983755e-09
6.69417816e-07
-4.09298341e-09
6.69857936e-07
-3.77289061e-09
6.70249998e-07
-3.46155374e-09
6.70596386e-07
-3.16059394e-09
6.70899618e-07
-2.87127239e-09
6.71162292e-07
-2.59452553e-09
6.71387077e-07
-2.33100296e-09
6.71576697e-07
-2.08110141e-09
6.71733869e-07
-1.84500336e-09
6.71861171e-07
-1.62270596e-09
6.71961122e-07
-1.41404077e-09
6.72036278e-07
-1.21871351e-09
6.72089104e-07
-1.0363679e-09
6.72121871e-07
-8.66524533e-10
6.72136547e-07
-7.08587275e-10
6.7213534e-07
-5.62507877e-10
6.7212033e-07
-4.27791525e-10
6.72093502e-07
-3.03984348e-10
6.72056839e-07
-1.90728581e-10
6.72012216e-07
-8.77117767e-11
6.71961284e-07
5.35033694e-12
6.71902607e-07
9.07231155e-11
6.71836996e-07
1.66745997e-10
6.7176507e-07
2.34497169e-10
6.71687654e-07
2.94426088e-10
6.71605619e-07
3.47276272e-10
6.71519653e-07
3.93689194e-10
6.7143038e-07
4.34198163e-10
6.71338401e-07
4.69330097e-10
6.71244278e-07
4.99586139e-10
6.71148526e-07
5.25420456e-10
6.71051618e-07
5.47245487e-10
6.70953989e-07
5.65437351e-10
6.70856033e-07
5.80339447e-10
6.70758102e-07
5.92264403e-10
6.70660505e-07
6.01494832e-10
6.70563512e-07
6.08286477e-10
6.70467355e-07
6.1287096e-10
6.70372231e-07
6.15457447e-10
6.70278308e-07
6.16236181e-10
6.70185729e-07
6.15380248e-10
6.70094616e-07
6.13048338e-10
6.70005074e-07
6.09385253e-10
6.69917195e-07
6.04524801e-10
6.69831056e-07
5.985892e-10
6.69746727e-07
5.91690983e-10
6.69664267e-07
5.83932937e-10
6.69583728e-07
5.75409179e-10
6.69505154e-07
5.66204556e-10
6.69428582e-07
5.5639598e-10
6.69354043e-07
5.46052845e-10
6.69281559e-07
5.35236664e-10
6.6921115e-07
5.24002486e-10
6.69142826e-07
5.12399437e-10
6.69076596e-07
5.0047049e-10
6.69012461e-07
4.88253831e-10
6.68950421e-07
4.75783312e-10
6.68890474e-07
4.63088099e-10
6.68832612e-07
4.50193811e-10
6.68776831e-07
4.3712218e-10
6.68723125e-07
4.23891541e-10
6.68671487e-07
4.10515842e-10
6.68621911e-07
3.97005464e-10
6.68574394e-07
3.83364404e-10
6.6852893e-07
3.69599469e-10
6.68485518e-07
3.55669353e-10
6.68444143e-07
3.41712846e-10
6.68404898e-07
3.26986857e-10
6.68367591e-07
3.14549672e-10
2.90531604e-10
6.66715003e-07
-2.29866241e-10
6.66827651e-07
-5.04316838e-10
6.66963106e-07
-5.4242724e-10
6.67075531e-07
-3.40346936e-10
6.67128271e-07
7.11302534e-11
6.67092574e-07
6.31757056e-10
6.66950962e-07
1.26159279e-09
6.66703056e-07
1.87745518e-09
6.66361324e-07
2.4120684e-09
6.65946781e-07
2.81783583e-09
6.65485357e-07
3.06661476e-09
6.65004986e-07
3.14878584e-09
6.64533156e-07
3.07058119e-09
6.64095193e-07
2.84855523e-09
6.63713256e-07
2.50441519e-09
6.63405308e-07
2.06500942e-09
6.63183155e-07
1.56789913e-09
6.63049485e-07
1.06697277e-09
6.62995118e-07
6.30894672e-10
6.62998373e-07
3.31454818e-10
6.6302819e-07
2.25406306e-10
6.63048766e-07
3.38964919e-10
6.63023425e-07
6.61422037e-10
6.62921756e-07
1.14613555e-09
6.62725076e-07
1.72221756e-09
6.62428598e-07
2.31049178e-09
6.62040725e-07
2.83808698e-09
6.61580247e-07
3.24846876e-09
6.610726e-07
3.5058045e-09
6.60546219e-07
3.59459482e-09
6.60029575e-07
3.51654668e-09
6.59549001e-07
3.28683245e-09
6.59127021e-07
2.93143931e-09
6.5878075e-07
2.48626824e-09
6.58520074e-07
1.99727179e-09
6.58345761e-07
1.51983899e-09
6.58248191e-07
1.11531951e-09
6.58207479e-07
8.4358976e-10
6.58195213e-07
7.5253236e-10
6.58177894e-07
8.66917506e-10
6.58121981e-07
1.18005968e-09
6.57999546e-07
1.65217324e-09
6.57793408e-07
2.21694116e-09
6.57500105e-07
2.79557272e-09
6.57129423e-07
3.31489226e-09
6.56700715e-07
3.72366255e-09
6.56237289e-07
4.00197503e-09
6.55760645e-07
4.16110444e-09
6.55286215e-07
4.23461004e-09
6.54821582e-07
4.26454598e-09
6.54367238e-07
4.28804806e-09
6.5391903e-07
4.32868809e-09
6.53471107e-07
4.39444207e-09
6.53018267e-07
4.48123119e-09
6.52557155e-07
4.579122e-09
6.52086344e-07
4.67806254e-09
6.51605746e-07
4.77119389e-09
6.51115857e-07
4.85542968e-09
6.50617233e-07
4.930226e-09
6.5011029e-07
4.99585547e-09
6.49595366e-07
5.05215202e-09
6.4907289e-07
5.09805562e-09
6.48543531e-07
5.13177099e-09
6.48008279e-07
5.15116762e-09
6.47468452e-07
5.15411536e-09
6.46925675e-07
5.13864738e-09
6.46381857e-07
5.10298259e-09
6.45839173e-07
5.04548068e-09
6.45300061e-07
4.96462047e-09
6.4476721e-07
4.85899964e-09
6.44243553e-07
4.72734914e-09
6.43732258e-07
4.56856802e-09
6.43236706e-07
4.38174362e-09
6.42760479e-07
4.16615582e-09
6.42307341e-07
3.92128833e-09
6.4188121e-07
3.64682772e-09
6.41486143e-07
3.34265513e-09
6.41126306e-07
3.00884985e-09
6.40805946e-07
2.64568732e-09
6.40529348e-07
2.25364032e-09
6.40300738e-07
1.83340816e-09
6.40124182e-07
1.38592972e-09
6.4000418e-07
9.12358995e-10
6.39946605e-07
4.13780993e-10
6.39955308e-07
-1.07255269e-10
6.40033519e-07
-6.48072317e-10
6.40185121e-07
-1.20634981e-09
6.40413575e-07
-1.77933376e-09
6.40721884e-07
-2.36367745e-09
6.41112274e-07
-2.95535023e-09
6.41586205e-07
-3.54982449e-09
6.42144321e-07
-4.1420645e-09
6.42786341e-07
-4.72653343e-09
6.43510946e-07
-5.29728773e-09
6.443157e-07
-5.84809609e-09
6.45197003e-07
-6.37256986e-09
6.46150069e-07
-6.864337e-09
6.47168957e-07
-7.31722949e-09
6.48246629e-07
-7.72546708e-09
6.49375064e-07
-8.08386125e-09
6.50545401e-07
-8.3879972e-09
6.51748125e-07
-8.63437738e-09
6.52973272e-07
-8.82055735e-09
6.54210662e-07
-8.94521725e-09
6.55450136e-07
-9.008204e-09
6.56681787e-07
-9.01049954e-09
6.57896181e-07
-8.95418347e-09
6.59084544e-07
-8.842309e-09
6.60238925e-07
-8.67878671e-09
6.61352315e-07
-8.46821882e-09
6.62418726e-07
-8.21573803e-09
6.6343323e-07
-7.9268195e-09
6.64391967e-07
-7.60712553e-09
6.65292112e-07
-7.26234818e-09
6.66131822e-07
-6.89805852e-09
6.66910163e-07
-6.51960068e-09
6.67627014e-07
-6.13199533e-09
6.68282976e-07
-5.73985756e-09
6.68879265e-07
-5.34735699e-09
6.69417613e-07
-4.95818606e-09
6.69900169e-07
-4.57553925e-09
6.70329404e-07
-4.20212566e-09
6.7070803e-07
-3.84017983e-09
6.71038928e-07
-3.49149169e-09
6.71325089e-07
-3.1574327e-09
6.71569562e-07
-2.83899927e-09
6.71775411e-07
-2.5368515e-09
6.71945661e-07
-2.25135129e-09
6.7208327e-07
-1.98261284e-09
6.72191115e-07
-1.73055107e-09
6.72271983e-07
-1.49490858e-09
6.72328547e-07
-1.27527731e-09
6.7236333e-07
-1.0711513e-09
6.72378783e-07
-8.81977085e-10
6.72377383e-07
-7.07186995e-10
6.72361113e-07
-5.46238809e-10
6.72331949e-07
-3.98626817e-10
6.72291474e-07
-2.63509689e-10
6.7224041e-07
-1.39664421e-10
6.72179132e-07
-2.64343003e-11
6.72109934e-07
7.45489526e-11
6.72034807e-07
1.65849935e-10
6.71954266e-07
2.4728747e-10
6.71869056e-07
3.19707083e-10
6.71779711e-07
3.83770456e-10
6.7168686e-07
4.40127315e-10
6.71591113e-07
4.89436651e-10
6.71493016e-07
5.32294657e-10
6.71393084e-07
5.69262241e-10
6.71291797e-07
6.00873755e-10
6.71189591e-07
6.27625835e-10
6.71086862e-07
6.4997462e-10
6.70983963e-07
6.68336825e-10
6.7088121e-07
6.83092249e-10
6.70778888e-07
6.94585662e-10
6.70677255e-07
7.03128432e-10
6.70576538e-07
7.09002936e-10
6.70476943e-07
7.1246607e-10
6.7037865e-07
7.13751192e-10
6.70281814e-07
7.1307189e-10
6.70186571e-07
7.10623366e-10
6.70093034e-07
7.06584876e-10
6.700013e-07
7.01119715e-10
6.69911446e-07
6.94378161e-10
6.69823539e-07
6.86496639e-10
6.6973763e-07
6.77599925e-10
6.69653762e-07
6.6780118e-10
6.69571968e-07
6.57203327e-10
6.69492274e-07
6.45898551e-10
6.694147e-07
6.33969991e-10
6.6933926e-07
6.21492368e-10
6.69265965e-07
6.08531679e-10
6.69194821e-07
5.95146878e-10
6.6912583e-07
5.81390508e-10
6.69058992e-07
5.67308431e-10
6.68994304e-07
5.52941367e-10
6.68931762e-07
5.38325372e-10
6.68871359e-07
5.23491414e-10
6.68813086e-07
5.08466648e-10
6.68756934e-07
4.93274034e-10
6.68702893e-07
4.7793294e-10
6.6865095e-07
4.62458113e-10
6.68601095e-07
4.46860854e-10
6.68553313e-07
4.31146028e-10
6.68507589e-07
4.15323982e-10
6.68463906e-07
3.99351778e-10
6.6842221e-07
3.83409272e-10
6.68382529e-07
3.666674e-10
6.68344257e-07
3.52822023e-10
3.26127119e-10
6.66713588e-07
-2.76854345e-10
6.66824047e-07
-6.14775915e-10
6.66957968e-07
-6.76348436e-10
6.67074597e-07
-4.5697516e-10
6.67131937e-07
1.37903025e-11
6.6709606e-07
6.67633508e-10
6.66953682e-07
1.40397089e-09
6.66704858e-07
2.12627893e-09
6.66361902e-07
2.75502512e-09
6.65945419e-07
3.23431884e-09
6.65481007e-07
3.53102618e-09
6.64996392e-07
3.63340096e-09
6.64519004e-07
3.54796944e-09
6.64074273e-07
3.29328583e-09
6.63684627e-07
2.89406088e-09
6.6336848e-07
2.38115704e-09
6.63138334e-07
1.79804492e-09
6.62997961e-07
1.20734582e-09
6.62939674e-07
6.8918194e-10
6.62943106e-07
3.28022842e-10
6.62975876e-07
1.92636409e-10
6.62998335e-07
3.165056e-10
6.62973604e-07
6.86152607e-10
6.62872678e-07
1.24706211e-09
6.62677894e-07
1.91700176e-09
6.62384664e-07
2.60372133e-09
6.62000863e-07
3.22188838e-09
6.61544445e-07
3.70488603e-09
6.61040103e-07
4.01014636e-09
6.6051582e-07
4.11887849e-09
6.59999926e-07
4.0324408e-09
6.59518835e-07
3.76792282e-09
6.59095305e-07
3.35496987e-09
6.58746899e-07
2.83467362e-09
6.58484374e-07
2.25979707e-09
6.58309925e-07
1.6942882e-09
6.58215495e-07
1.20974909e-09
6.58181941e-07
8.77143952e-10
6.58180186e-07
7.54287231e-10
6.58175338e-07
8.71765708e-10
6.58132543e-07
1.22285488e-09
6.58023142e-07
1.76157437e-09
6.57829797e-07
2.41028591e-09
6.57548791e-07
3.07657829e-09
6.57189338e-07
3.6743458e-09
6.56770215e-07
4.14278573e-09
6.56314471e-07
4.45771884e-09
6.55843728e-07
4.63184764e-09
6.55373784e-07
4.70455362e-09
6.54912639e-07
4.72569109e-09
6.54461069e-07
4.73961775e-09
6.54015008e-07
4.77474961e-09
6.535685e-07
4.84094934e-09
6.53116126e-07
4.93360576e-09
6.5265427e-07
5.04097776e-09
6.52181264e-07
5.15106818e-09
6.51696813e-07
5.25564496e-09
6.51201247e-07
5.35099592e-09
6.50694981e-07
5.43649174e-09
6.50178314e-07
5.51252317e-09
6.49651485e-07
5.57898113e-09
6.4911485e-07
5.63468977e-09
6.4856904e-07
5.6775814e-09
6.48015038e-07
5.70516953e-09
6.47454202e-07
5.71495178e-09
6.4688824e-07
5.70460946e-09
6.46319185e-07
5.67203722e-09
6.45749376e-07
5.61528987e-09
6.4518144e-07
5.53255577e-09
6.44618283e-07
5.42215673e-09
6.44063067e-07
5.28256577e-09
6.43519187e-07
5.11244735e-09
6.42990252e-07
4.91067914e-09
6.42480054e-07
4.67635368e-09
6.41992556e-07
4.4087867e-09
6.41531871e-07
4.10751217e-09
6.41102255e-07
3.77227101e-09
6.40708089e-07
3.40301578e-09
6.40353865e-07
2.9999113e-09
6.40044168e-07
2.56333765e-09
6.39783666e-07
2.09391008e-09
6.39577088e-07
1.5925082e-09
6.39429058e-07
1.06038896e-09
6.39343486e-07
4.99353148e-10
6.39325122e-07
-8.88916559e-11
6.39379326e-07
-7.02276387e-10
6.39510727e-07
-1.33775035e-09
6.39723356e-07
-1.99196301e-09
6.40020663e-07
-2.66098427e-09
6.40405567e-07
-3.34025426e-09
6.40880249e-07
-4.02450697e-09
6.41445983e-07
-4.70779799e-09
6.42103002e-07
-5.38355239e-09
6.42850374e-07
-6.04465966e-09
6.43685883e-07
-6.68360597e-09
6.44605948e-07
-7.29263434e-09
6.45605571e-07
-7.86396046e-09
6.46678352e-07
-8.39000965e-09
6.4781654e-07
-8.8636553e-09
6.49011162e-07
-9.27848333e-09
6.50252196e-07
-9.62903142e-09
6.515288e-07
-9.91098097e-09
6.52829577e-07
-1.01213343e-08
6.54142869e-07
-1.02585095e-08
6.55457057e-07
-1.03223926e-08
6.56760853e-07
-1.03142956e-08
6.58043569e-07
-1.02368987e-08
6.59295347e-07
-1.00940874e-08
6.60507354e-07
-9.89079338e-09
6.61671912e-07
-9.63277688e-09
6.62782588e-07
-9.32641429e-09
6.63834226e-07
-8.97845763e-09
6.64822936e-07
-8.59583541e-09
6.65746044e-07
-8.18545586e-09
6.66602009e-07
-7.75402348e-09
6.6739032e-07
-7.30791159e-09
6.68111375e-07
-6.85305069e-09
6.68766355e-07
-6.39483726e-09
6.69357092e-07
-5.93809385e-09
6.69885947e-07
-5.48704121e-09
6.70355692e-07
-5.04528486e-09
6.70769406e-07
-4.61583911e-09
6.71130375e-07
-4.20114866e-09
6.71442014e-07
-3.80313073e-09
6.71707793e-07
-3.42321244e-09
6.71931181e-07
-3.06238729e-09
6.72115597e-07
-2.72126723e-09
6.72264378e-07
-2.40013186e-09
6.7238075e-07
-2.09898504e-09
6.72467801e-07
-1.81760225e-09
6.72528462e-07
-1.55556998e-09
6.72565512e-07
-1.31232721e-09
6.72581565e-07
-1.08720402e-09
6.72579037e-07
-8.79448969e-10
6.72560107e-07
-6.88257355e-10
6.72526694e-07
-5.1282595e-10
6.72480431e-07
-3.52363462e-10
6.72423073e-07
-2.06151847e-10
6.72356967e-07
-7.35580825e-11
6.72284216e-07
4.63161488e-11
6.72204706e-07
1.54059788e-10
6.72119705e-07
2.5085097e-10
6.72029749e-07
3.37243302e-10
6.71935587e-07
4.13869041e-10
6.71837902e-07
4.81455475e-10
6.71737317e-07
5.4071181e-10
6.71634421e-07
5.92333042e-10
6.71529744e-07
6.36972018e-10
6.71423768e-07
6.75238275e-10
6.71316938e-07
7.07703667e-10
6.71209663e-07
7.34900241e-10
6.71102319e-07
7.57318667e-10
6.70995246e-07
7.7540978e-10
6.7088875e-07
7.89588865e-10
6.70783098e-07
8.00237604e-10
6.70678522e-07
8.07703959e-10
6.7057522e-07
8.12304723e-10
6.70473359e-07
8.14327606e-10
6.70373077e-07
8.14032483e-10
6.70274494e-07
8.1165534e-10
6.70177708e-07
8.07409906e-10
6.70082802e-07
8.0149083e-10
6.69989847e-07
7.94074213e-10
6.69898904e-07
7.85321405e-10
6.69810022e-07
7.7537833e-10
6.69723244e-07
7.64378172e-10
6.69638603e-07
7.52441566e-10
6.69556129e-07
7.39678285e-10
6.6947584e-07
7.26186758e-10
6.69397754e-07
7.12056006e-10
6.6932188e-07
6.9736631e-10
6.69248223e-07
6.82188787e-10
6.69176783e-07
6.6658715e-10
6.69107555e-07
6.50618265e-10
6.69040532e-07
6.3433169e-10
6.68975702e-07
6.17771242e-10
6.68913052e-07
6.00975429e-10
6.68852567e-07
5.83976925e-10
6.68794229e-07
5.6680402e-10
6.68738023e-07
5.49480284e-10
6.6868393e-07
5.32025408e-10
6.68631934e-07
5.14454286e-10
6.68582017e-07
4.96778593e-10
6.68534159e-07
4.79003828e-10
6.6848834e-07
4.61142782e-10
6.68444542e-07
4.4314985e-10
6.68402726e-07
4.25225584e-10
6.68362963e-07
4.06429449e-10
6.68325e-07
3.90785636e-10
3.60605049e-10
6.66716121e-07
-3.26275206e-10
6.66831735e-07
-7.3038978e-10
6.66971179e-07
-8.15792481e-10
6.67090055e-07
-5.75851614e-10
6.67147523e-07
-4.36772403e-11
6.67114989e-07
7.00166901e-10
6.66973355e-07
1.54560545e-09
6.66721694e-07
2.37793976e-09
6.66372002e-07
3.10471685e-09
6.6594527e-07
3.66105083e-09
6.65468036e-07
4.00826034e-09
6.64969439e-07
4.13199779e-09
6.64478588e-07
4.03882078e-09
6.64022608e-07
3.74926579e-09
6.63625408e-07
3.29126128e-09
6.63306433e-07
2.70013206e-09
6.63078506e-07
2.02597151e-09
6.62944747e-07
1.34110491e-09
6.62895757e-07
7.38172259e-10
6.62908823e-07
3.14956844e-10