/*--------------------------------*- C++ -*----------------------------------*\
| =========                 |                                                 |
| \\      /  F ield         | OpenFOAM: The Open Source CFD Toolbox           |
|  \\    /   O peration     | Version:  v2012                                 |
|   \\  /    A nd           | Website:  www.openfoam.com                      |
|    \\/     M anipulation  |                                                 |
\*---------------------------------------------------------------------------*/
FoamFile
{
    version     2.0;
    format      ascii;
    class       surfaceScalarField;
    location    "2.64";
    object      phiHbyA;
}
// * * * * * * * * * * * * * * * * * * * * * * * * * * * * * * * * * * * * * //

dimensions      [0 3 -1 0 0 0 0];
oriented        oriented;


internalField   nonuniform List<scalar> 
56481
(
6.66712519e-07
-9.01079902e-11
6.66802857e-07
-1.80863864e-10
6.66897379e-07
-1.58088855e-10
6.66959208e-07
-1.72369157e-11
6.66974757e-07
2.1287831e-10
6.66911385e-07
5.11704775e-10
6.66759494e-07
8.33354259e-10
6.66521499e-07
1.14233513e-09
6.66209162e-07
1.40796528e-09
6.65840574e-07
1.6065531e-09
6.65437246e-07
1.72334405e-09
6.65021554e-07
1.75352807e-09
6.64614763e-07
1.70113902e-09
6.64235886e-07
1.57594907e-09
6.63901149e-07
1.39056315e-09
6.63623353e-07
1.16025691e-09
6.63410372e-07
9.05644941e-10
6.63262937e-07
6.55257567e-10
6.63172767e-07
4.4439472e-10
6.63122234e-07
3.08888605e-10
6.63086093e-07
2.75952927e-10
6.63034795e-07
3.56229873e-10
6.62939962e-07
5.40712265e-10
6.62781228e-07
8.03515834e-10
6.62548642e-07
1.10781196e-09
6.6224246e-07
1.41353805e-09
6.6187193e-07
1.68445112e-09
6.61452749e-07
1.8925042e-09
6.61004086e-07
2.01970982e-09
6.60545995e-07
2.05813563e-09
6.60097617e-07
2.0088186e-09
6.59676076e-07
1.88038371e-09
6.59295716e-07
1.6879592e-09
6.58967294e-07
1.45256032e-09
6.58696879e-07
1.20049624e-09
6.58484482e-07
9.62332362e-10
6.58322759e-07
7.70587303e-10
6.58196424e-07
6.55642219e-10
6.58083429e-07
6.40538327e-10
6.57958712e-07
7.35542622e-10
6.57799269e-07
9.34491288e-10
6.57588298e-07
1.21482054e-09
6.57317559e-07
1.54162965e-09
6.56987953e-07
1.87495151e-09
6.56608255e-07
2.17849674e-09
6.56192254e-07
2.42729737e-09
6.55755071e-07
2.61184232e-09
6.55309766e-07
2.73757801e-09
6.54865105e-07
2.82035929e-09
6.54424956e-07
2.87981964e-09
6.5398912e-07
2.93314185e-09
6.5355502e-07
2.99118033e-09
6.53119481e-07
3.05765652e-09
6.52680006e-07
3.13084486e-09
6.52235307e-07
3.20638176e-09
6.51785211e-07
3.27980306e-09
6.5133023e-07
3.34797546e-09
6.50871103e-07
3.40932829e-09
6.50408527e-07
3.46331521e-09
6.49943076e-07
3.50968363e-09
6.49475276e-07
3.54796123e-09
6.49005709e-07
3.57728878e-09
6.4853511e-07
3.59650941e-09
6.48064406e-07
3.6043524e-09
6.47594731e-07
3.59957707e-09
6.47127427e-07
3.58104197e-09
6.46664024e-07
3.54772486e-09
6.46206239e-07
3.49870603e-09
6.45755974e-07
3.43316604e-09
6.4531532e-07
3.35039152e-09
6.44886554e-07
3.24978473e-09
6.44472137e-07
3.13088533e-09
6.44074708e-07
2.99338334e-09
6.43697085e-07
2.83712264e-09
6.43342268e-07
2.66210902e-09
6.43013444e-07
2.46850733e-09
6.42713997e-07
2.25663198e-09
6.42447512e-07
2.02693608e-09
6.4221779e-07
1.77998083e-09
6.42028931e-07
1.5163738e-09
6.41885188e-07
1.23667091e-09
6.41789661e-07
9.41327033e-10
6.41744197e-07
6.31266607e-10
6.4174869e-07
3.08472105e-10
6.4179754e-07
-2.28201036e-11
6.4191632e-07
-3.65461862e-10
6.42101893e-07
-7.11759755e-10
6.42355062e-07
-1.0646045e-09
6.4267629e-07
-1.42194774e-09
6.43065948e-07
-1.78162991e-09
6.43524024e-07
-2.14127348e-09
6.44049918e-07
-2.49809775e-09
6.44642379e-07
-2.84907239e-09
6.45299456e-07
-3.19101285e-09
6.46018456e-07
-3.52061215e-09
6.46795958e-07
-3.83449395e-09
6.47627838e-07
-4.1293009e-09
6.48509327e-07
-4.40178928e-09
6.49435069e-07
-4.64892294e-09
6.50399191e-07
-4.86798005e-09
6.51395379e-07
-5.05664439e-09
6.52416968e-07
-5.21307106e-09
6.5345704e-07
-5.33594782e-09
6.54508543e-07
-5.42452136e-09
6.55564409e-07
-5.47861365e-09
6.56617687e-07
-5.49860334e-09
6.57661657e-07
-5.4854143e-09
6.58689952e-07
-5.44046046e-09
6.59696648e-07
-5.36560178e-09
6.60676345e-07
-5.26307322e-09
6.61624231e-07
-5.13541712e-09
6.6253612e-07
-4.98539661e-09
6.63408471e-07
-4.81592561e-09
6.64238397e-07
-4.62999232e-09
6.65023651e-07
-4.43058108e-09
6.65762602e-07
-4.2206164e-09
6.66454196e-07
-4.00290737e-09
6.67097916e-07
-3.78009609e-09
6.67693723e-07
-3.55462767e-09
6.6824201e-07
-3.32872087e-09
6.68743547e-07
-3.10434504e-09
6.6919944e-07
-2.88321898e-09
6.69611065e-07
-2.66680428e-09
6.69980012e-07
-2.45630444e-09
6.70308007e-07
-2.25266827e-09
6.70596896e-07
-2.05660778e-09
6.7084869e-07
-1.8686123e-09
6.71065625e-07
-1.68899097e-09
6.71250122e-07
-1.51791993e-09
6.71404641e-07
-1.35546386e-09
6.71531556e-07
-1.20156138e-09
6.71633162e-07
-1.05604106e-09
6.71711753e-07
-9.18713196e-10
6.71769605e-07
-7.89355014e-10
6.71808918e-07
-6.67730833e-10
6.71831824e-07
-5.53647036e-10
6.7184043e-07
-4.46950234e-10
6.71836803e-07
-3.47517601e-10
6.71822891e-07
-2.55301828e-10
6.71800435e-07
-1.70392345e-10
6.71770731e-07
-9.29004738e-11
6.71734324e-07
-2.3078382e-11
6.71689586e-07
4.00281329e-11
6.71636692e-07
9.5532739e-11
6.71576472e-07
1.44579645e-10
6.71509895e-07
1.87968439e-10
6.71437867e-07
2.26181597e-10
6.71361183e-07
2.59737156e-10
6.71280574e-07
2.89130006e-10
6.71196717e-07
3.14780557e-10
6.71110239e-07
3.37055089e-10
6.71021715e-07
3.56282248e-10
6.70931669e-07
3.72755721e-10
6.70840577e-07
3.86736681e-10
6.70748865e-07
3.98455787e-10
6.7065691e-07
4.08115066e-10
6.70565043e-07
4.1589252e-10
6.70473545e-07
4.21946752e-10
6.70382658e-07
4.26420566e-10
6.70292586e-07
4.29445282e-10
6.70203504e-07
4.31142986e-10
6.70115561e-07
4.31628618e-10
6.70028885e-07
4.31009974e-10
6.6994359e-07
4.29389201e-10
6.69859775e-07
4.26861761e-10
6.69777529e-07
4.23517154e-10
6.69696933e-07
4.19438251e-10
6.69618056e-07
4.14701491e-10
6.69540962e-07
4.09375967e-10
6.69465707e-07
4.03524042e-10
6.69392338e-07
3.97201457e-10
6.69320894e-07
3.90457056e-10
6.69251409e-07
3.83333961e-10
6.69183907e-07
3.75870249e-10
6.69118408e-07
3.68099132e-10
6.69054925e-07
3.60050335e-10
6.68993465e-07
3.51750746e-10
6.68934036e-07
3.43224392e-10
6.68876639e-07
3.34493385e-10
6.68821277e-07
3.2557766e-10
6.68767953e-07
3.16495181e-10
6.68716673e-07
3.07260933e-10
6.68667444e-07
2.97887003e-10
6.6862028e-07
2.88379985e-10
6.68575202e-07
2.78745283e-10
6.6853225e-07
2.68951408e-10
6.68491456e-07
2.59075457e-10
6.6845301e-07
2.48573669e-10
6.68416685e-07
2.39508419e-10
2.21772875e-10
6.66710112e-07
-1.3380881e-10
6.66815952e-07
-2.87332156e-10
6.66942237e-07
-2.84977822e-10
6.67049689e-07
-1.24976897e-10
6.67095184e-07
1.67318214e-10
6.67053569e-07
5.53417741e-10
6.66908868e-07
9.78269576e-10
6.6666188e-07
1.3896797e-09
6.66325884e-07
1.74442722e-09
6.65922027e-07
2.01095478e-09
6.65475656e-07
2.17031365e-09
6.65013377e-07
2.21643605e-09
6.64560737e-07
2.15441729e-09
6.64140828e-07
1.99648295e-09
6.637737e-07
1.75828488e-09
6.63475651e-07
1.45885356e-09
6.63257439e-07
1.12434872e-09
6.63121432e-07
7.9169579e-10
6.63058957e-07
5.07245188e-10
6.63049568e-07
3.18616961e-10
6.63063342e-07
2.62511313e-10
6.63065328e-07
3.54589734e-10
6.63020999e-07
5.85418915e-10
6.62902615e-07
9.22321095e-10
6.6269384e-07
1.31705723e-09
6.62391509e-07
1.71638117e-09
6.62004756e-07
2.07174832e-09
6.61552116e-07
2.34570856e-09
6.61057811e-07
2.51458891e-09
6.60548232e-07
2.56828939e-09
6.6004921e-07
2.50840933e-09
6.59584184e-07
2.34596932e-09
6.59172946e-07
2.09974719e-09
6.58830461e-07
1.7955899e-09
6.58565332e-07
1.4661715e-09
6.58378084e-07
1.15013662e-09
6.582598e-07
8.89443933e-10
6.58191851e-07
7.24173972e-10
6.5814753e-07
6.85435141e-10
6.58095328e-07
7.88286478e-10
6.58003821e-07
1.02648214e-09
6.57847531e-07
1.37152989e-09
6.57611865e-07
1.77765731e-09
6.57295422e-07
2.19170996e-09
6.56909053e-07
2.56514603e-09
6.56472068e-07
2.86453748e-09
6.56006788e-07
3.07735949e-09
6.55533116e-07
3.21147292e-09
6.55064695e-07
3.28899139e-09
6.54607537e-07
3.33717785e-09
6.54161061e-07
3.37980492e-09
6.53720674e-07
3.43174291e-09
6.53280649e-07
3.49784364e-09
6.52836301e-07
3.57534251e-09
6.5238496e-07
3.65786043e-09
6.51925868e-07
3.7390206e-09
6.51459479e-07
3.81447955e-09
6.50986683e-07
3.8822308e-09
6.50508299e-07
3.9417982e-09
6.50024922e-07
3.99315383e-09
6.49537018e-07
4.03595538e-09
6.49045102e-07
4.06929193e-09
6.48549892e-07
4.09180766e-09
6.48052359e-07
4.10197526e-09
6.4755373e-07
4.09829958e-09
6.47055484e-07
4.07938545e-09
6.4655933e-07
4.04398077e-09
6.46067198e-07
3.99094566e-09
6.45581232e-07
3.91924441e-09
6.45103791e-07
3.8279498e-09
6.44637444e-07
3.71625357e-09
6.44184961e-07
3.58349207e-09
6.43749308e-07
3.42916166e-09
6.43333632e-07
3.25292276e-09
6.42941252e-07
3.05460952e-09
6.42575645e-07
2.83422837e-09
6.42240434e-07
2.59194796e-09
6.41939368e-07
2.32809395e-09
6.41676285e-07
2.04313676e-09
6.41455006e-07
1.73770613e-09
6.41279143e-07
1.4125617e-09
6.41152185e-07
1.06827626e-09
6.41077857e-07
7.05524361e-10
6.41060889e-07
3.25278603e-10
6.41107255e-07
-6.9708203e-11
6.41215619e-07
-4.74113614e-10
6.41392141e-07
-8.8863486e-10
6.41638814e-07
-1.31171798e-09
6.41957628e-07
-1.74127398e-09
6.42349761e-07
-2.17435771e-09
6.4281565e-07
-2.60784772e-09
6.43355084e-07
-3.03830835e-09
6.43967097e-07
-3.46195788e-09
6.44649899e-07
-3.87478202e-09
6.4540084e-07
-4.2726156e-09
6.46216408e-07
-4.65121689e-09
6.47092244e-07
-5.0063787e-09
6.48023177e-07
-5.33404685e-09
6.49003288e-07
-5.63043342e-09
6.50025988e-07
-5.89214423e-09
6.51084115e-07
-6.11629035e-09
6.52170052e-07
-6.30057228e-09
6.53275871e-07
-6.44336152e-09
6.54393475e-07
-6.54374016e-09
6.55514768e-07
-6.60152636e-09
6.56631805e-07
-6.61725377e-09
6.57736952e-07
-6.59215514e-09
6.58823019e-07
-6.52808947e-09
6.59883378e-07
-6.42747981e-09
6.60912056e-07
-6.29321742e-09
6.61903805e-07
-6.12856976e-09
6.6285414e-07
-5.93706661e-09
6.63759364e-07
-5.72240738e-09
6.64616556e-07
-5.48836235e-09
6.65423556e-07
-5.23867384e-09
6.6617892e-07
-4.97698583e-09
6.6688187e-07
-4.70677572e-09
6.67532237e-07
-4.43129282e-09
6.68130391e-07
-4.15352409e-09
6.68677175e-07
-3.87616149e-09
6.69173832e-07
-3.60157619e-09
6.69621939e-07
-3.33181944e-09
6.70023339e-07
-3.06862207e-09
6.70380097e-07
-2.81340985e-09
6.70694462e-07
-2.56731401e-09
6.70968823e-07
-2.33118724e-09
6.71205658e-07
-2.10561045e-09
6.71407478e-07
-1.89092453e-09
6.71576805e-07
-1.68731907e-09
6.71716232e-07
-1.49493013e-09
6.71828311e-07
-1.31364899e-09
6.71915433e-07
-1.1431439e-09
6.71979915e-07
-9.83149331e-10
6.72024011e-07
-8.33381691e-10
6.7204992e-07
-6.93550522e-10
6.72059745e-07
-5.63364436e-10
6.72055376e-07
-4.42460051e-10
6.72038469e-07
-3.30479827e-10
6.72010368e-07
-2.27068039e-10
6.71972124e-07
-1.32022028e-10
6.71924605e-07
-4.5274601e-11
6.71869286e-07
3.23381954e-11
6.71807993e-07
1.01419936e-10
6.71740788e-07
1.62855329e-10
6.71668215e-07
2.17293072e-10
6.71590815e-07
2.65517954e-10
6.71509159e-07
3.07995214e-10
6.71423871e-07
3.4519134e-10
6.71335563e-07
3.77611443e-10
6.71244804e-07
4.05716512e-10
6.71152125e-07
4.29915132e-10
6.71058011e-07
4.50578318e-10
6.70962908e-07
4.68042378e-10
6.70867217e-07
4.82610154e-10
6.70771302e-07
4.94552635e-10
6.70675485e-07
5.04110616e-10
6.70580054e-07
5.11499222e-10
6.7048526e-07
5.16912174e-10
6.70391323e-07
5.20524691e-10
6.70298434e-07
5.22497463e-10
6.70206757e-07
5.22978643e-10
6.70116434e-07
5.22106137e-10
6.70027586e-07
5.20007666e-10
6.69940318e-07
5.16802739e-10
6.69854719e-07
5.12601665e-10
6.69770866e-07
5.07506733e-10
6.69688824e-07
5.01611764e-10
6.69608651e-07
4.9500272e-10
6.69530393e-07
4.87756975e-10
6.69454092e-07
4.79944342e-10
6.69379781e-07
4.71627407e-10
6.69307487e-07
4.62861278e-10
6.69237232e-07
4.53694924e-10
6.69169032e-07
4.44171823e-10
6.69102899e-07
4.34329961e-10
6.69038839e-07
4.24203215e-10
6.68976857e-07
4.13821912e-10
6.68916953e-07
4.03212636e-10
6.68859128e-07
3.92399254e-10
6.6880338e-07
3.81402584e-10
6.68749707e-07
3.70240708e-10
6.68698108e-07
3.58927917e-10
6.68648585e-07
3.47475152e-10
6.68601138e-07
3.35887209e-10
6.6855577e-07
3.24170305e-10
6.68512486e-07
3.12288289e-10
6.68471242e-07
3.00363308e-10
6.68432106e-07
2.87764395e-10
6.68394326e-07
2.77258232e-10
2.568391e-10
6.66710711e-07
-1.77601477e-10
6.66811051e-07
-3.87717162e-10
6.66929104e-07
-4.03055023e-10
6.67028275e-07
-2.24073263e-10
6.67067813e-07
1.27520496e-10
6.6702129e-07
5.99586284e-10
6.66875727e-07
1.12335993e-09
6.66632068e-07
1.63278144e-09
6.66302442e-07
2.07342474e-09
6.65906463e-07
2.40624197e-09
6.65468035e-07
2.60800598e-09
6.65012609e-07
2.67110343e-09
6.64564945e-07
2.60131976e-09
6.64147637e-07
2.41304194e-09
6.63780389e-07
2.12481027e-09
6.63479284e-07
1.75927295e-09
6.63255167e-07
1.34782653e-09
6.63111031e-07
9.35241032e-10
6.63039425e-07
5.78302511e-10
6.63021225e-07
3.36295126e-10
6.63026629e-07
2.56598761e-10
6.63020045e-07
3.60692628e-10
6.62968009e-07
6.36987337e-10
6.62844753e-07
1.04509723e-09
6.62635442e-07
1.52587233e-09
6.6233728e-07
2.01403515e-09
6.6195861e-07
2.4499068e-09
6.61516471e-07
2.78734039e-09
6.61033415e-07
2.99715089e-09
6.60534393e-07
3.06683754e-09
6.60044212e-07
2.99814319e-09
6.59585662e-07
2.80410342e-09
6.59178127e-07
2.50689983e-09
6.58836346e-07
2.13702337e-09
6.58569003e-07
1.73320264e-09
6.58377148e-07
1.34171241e-09
6.5825283e-07
1.01351618e-09
6.5817856e-07
7.98231513e-10
6.58128602e-07
7.35215688e-10
6.58072592e-07
8.44149929e-10
6.5798064e-07
1.11831257e-09
6.5782853e-07
1.52353449e-09
6.57601838e-07
2.00425343e-09
6.57298057e-07
2.49540128e-09
6.56926061e-07
2.93705565e-09
6.56502969e-07
3.28754655e-09
6.56049324e-07
3.53092536e-09
6.5558406e-07
3.67666157e-09
6.55120736e-07
3.75224522e-09
6.54665961e-07
3.79188802e-09
6.54220073e-07
3.82563086e-09
6.53779353e-07
3.87240413e-09
6.53338655e-07
3.9384836e-09
6.52893499e-07
4.02043887e-09
6.52441116e-07
4.1101819e-09
6.51980483e-07
4.19958854e-09
6.51511759e-07
4.2831323e-09
6.510356e-07
4.35831187e-09
6.50552674e-07
4.42463721e-09
6.50063494e-07
4.48223799e-09
6.49568476e-07
4.53086642e-09
6.49068102e-07
4.56954851e-09
6.48563054e-07
4.59672581e-09
6.48054303e-07
4.61058364e-09
6.4754313e-07
4.60931802e-09
6.47031084e-07
4.59126439e-09
6.46519965e-07
4.55492187e-09
6.46011808e-07
4.4989164e-09
6.45508874e-07
4.42198413e-09
6.45013652e-07
4.32297352e-09
6.44528845e-07
4.20085869e-09
6.44057364e-07
4.05476986e-09
6.43602316e-07
3.8840103e-09
6.43166984e-07
3.68805898e-09
6.42754826e-07
3.46657921e-09
6.4236946e-07
3.21941617e-09
6.42014655e-07
2.94658769e-09
6.41694315e-07
2.64828467e-09
6.41412456e-07
2.32486538e-09
6.41173213e-07
1.97684205e-09
6.40980839e-07
1.60485586e-09
6.40839378e-07
1.20969047e-09
6.40751967e-07
7.92928909e-10
6.40720248e-07
3.57031167e-10
6.40748192e-07
-9.746257e-11
6.40842739e-07
-5.68538376e-10
6.41007453e-07
-1.05317981e-09
6.4124503e-07
-1.54906397e-09
6.41557351e-07
-2.05330877e-09
6.41945995e-07
-2.56266117e-09
6.42411905e-07
-3.07335788e-09
6.42955235e-07
-3.58117795e-09
6.43575313e-07
-4.08151545e-09
6.44270576e-07
-4.569465e-09
6.45038514e-07
-5.03991333e-09
6.45875636e-07
-5.48764148e-09
6.46777472e-07
-5.90746324e-09
6.477386e-07
-6.29437218e-09
6.48752701e-07
-6.64368458e-09
6.49812648e-07
-6.9512e-09
6.50910628e-07
-7.21334369e-09
6.52038288e-07
-7.42727674e-09
6.53186907e-07
-7.59100181e-09
6.54347578e-07
-7.70341676e-09
6.55511402e-07
-7.76434756e-09
6.56669675e-07
-7.77452272e-09
6.57814066e-07
-7.73554842e-09
6.58936775e-07
-7.64981338e-09
6.60030664e-07
-7.5204039e-09
6.61089363e-07
-7.35097777e-09
6.62107343e-07
-7.14564256e-09
6.63079957e-07
-6.90880898e-09
6.64003451e-07
-6.64507067e-09
6.64874954e-07
-6.3590791e-09
6.6569244e-07
-6.05542081e-09
6.66454675e-07
-5.73853046e-09
6.67161147e-07
-5.41260885e-09
6.67811994e-07
-5.0815507e-09
6.68407914e-07
-4.7489071e-09
6.68950093e-07
-4.41785364e-09
6.69440121e-07
-4.09116751e-09
6.69879924e-07
-3.77123318e-09
6.70271689e-07
-3.46004461e-09
6.70617802e-07
-3.15922258e-09
6.70920774e-07
-2.87002809e-09
6.71183206e-07
-2.59339764e-09
6.71407762e-07
-2.32998104e-09
6.71597166e-07
-2.08017543e-09
6.71754134e-07
-1.84416377e-09
6.71881243e-07
-1.6219438e-09
6.7198101e-07
-1.41334777e-09
6.72055991e-07
-1.21808238e-09
6.7210865e-07
-1.0357921e-09
6.72141257e-07
-8.65998033e-10
6.7215578e-07
-7.08105029e-10
6.72154427e-07
-5.62066771e-10
6.72139274e-07
-4.27388085e-10
6.72112308e-07
-3.03613814e-10
6.72075514e-07
-1.90386299e-10
6.72030771e-07
-8.73938696e-11
6.71979697e-07
5.63054496e-12
6.7192091e-07
9.10074175e-11
6.71855194e-07
1.67021068e-10
6.71783158e-07
2.34756972e-10
6.71705635e-07
2.94671681e-10
6.71623494e-07
3.47507858e-10
6.71537424e-07
3.93907246e-10
6.71448048e-07
4.34403749e-10
6.71355969e-07
4.69524106e-10
6.71261747e-07
4.99769336e-10
6.71165897e-07
5.25593676e-10
6.71068895e-07
5.4740961e-10
6.70971173e-07
5.65593239e-10
6.70873127e-07
5.80487911e-10
6.70775107e-07
5.92406174e-10
6.70677425e-07
6.01630525e-10
6.70580349e-07
6.08416574e-10
6.70484111e-07
6.12995808e-10
6.70388909e-07
6.15577272e-10
6.7029491e-07
6.16351111e-10
6.70202258e-07
6.15490348e-10
6.70111074e-07
6.13153627e-10
6.70021464e-07
6.09485731e-10
6.69933518e-07
6.04620465e-10
6.69847316e-07
5.98680051e-10
6.69762926e-07
5.91777032e-10
6.69680408e-07
5.84014208e-10
6.69599813e-07
5.75485703e-10
6.69521186e-07
5.66276371e-10
6.69444563e-07
5.56463128e-10
6.69369975e-07
5.46115367e-10
6.69297446e-07
5.35294596e-10
6.69226993e-07
5.2405586e-10
6.69158628e-07
5.1244828e-10
6.69092359e-07
5.00514821e-10
6.69028188e-07
4.88293667e-10
6.68966115e-07
4.75818668e-10
6.68906136e-07
4.63118993e-10
6.68848245e-07
4.50220267e-10
6.68792438e-07
4.37144233e-10
6.68738707e-07
4.23909245e-10
6.68687047e-07
4.10529271e-10
6.68637451e-07
3.97014725e-10
6.68589917e-07
3.83369643e-10
6.68544437e-07
3.69600887e-10
6.68501014e-07
3.55667221e-10
6.68459623e-07
3.41707614e-10
6.68420381e-07
3.26979183e-10
6.68383001e-07
3.14541612e-10
2.90525567e-10
6.66714202e-07
-2.24918685e-10
6.66825745e-07
-4.99371477e-10
6.66960127e-07
-5.37492131e-10
6.67071529e-07
-3.35417109e-10
6.67123406e-07
7.61600193e-11
6.67086708e-07
6.36637569e-10
6.66944103e-07
1.26637896e-09
6.66695213e-07
1.88214888e-09
6.66352503e-07
2.4166604e-09
6.65936989e-07
2.82231792e-09
6.65474605e-07
3.07097739e-09
6.64993295e-07
3.15301851e-09
6.64520554e-07
3.07467274e-09
6.64081711e-07
2.85249372e-09
6.63698933e-07
2.50818754e-09
6.63390186e-07
2.06860114e-09
6.6316728e-07
1.57129417e-09
6.63032909e-07
1.07015387e-09
6.62977894e-07
6.33844074e-10
6.62980562e-07
3.34153621e-10
6.63009862e-07
2.27825365e-10
6.63029969e-07
3.41055575e-10
6.6300422e-07
6.63158631e-10
6.62902218e-07
1.14750633e-09
6.62705286e-07
1.72320449e-09
6.62408638e-07
2.31107266e-09
6.62020681e-07
2.83823924e-09
6.6156021e-07
3.2481706e-09
6.61052669e-07
3.50503509e-09
6.60526498e-07
3.59333435e-09
6.60010172e-07
3.51477644e-09
6.59530031e-07
3.28453522e-09
6.59108601e-07
2.92859995e-09
6.58763001e-07
2.48287417e-09
6.58503118e-07
1.99331324e-09
6.58329722e-07
1.51530919e-09
6.58233191e-07
1.11021529e-09
6.58193638e-07
8.37914317e-10
6.58182651e-07
7.46300325e-10
6.58166731e-07
8.60155935e-10
6.58112339e-07
1.1728014e-09
6.57991542e-07
1.64445015e-09
6.5778715e-07
2.20878439e-09
6.57495693e-07
2.78701558e-09
6.57126947e-07
3.3059718e-09
6.56700256e-07
3.71442019e-09
6.56238915e-07
3.99245647e-09
6.55764415e-07
4.15135911e-09
6.55292173e-07
4.22469052e-09
6.5482976e-07
4.25450746e-09
6.54377655e-07
4.27794764e-09
6.5393169e-07
4.31858383e-09
6.53486002e-07
4.38439198e-09
6.53035374e-07
4.47129216e-09
6.5257644e-07
4.56934881e-09
6.52107761e-07
4.66850701e-09
6.51629236e-07
4.76190417e-09
6.51141353e-07
4.84644964e-09
6.50644658e-07
4.92159477e-09
6.50139559e-07
4.98760701e-09
6.49626388e-07
5.0443149e-09
6.49105567e-07
5.09065288e-09
6.48577761e-07
5.12482014e-09
6.48043958e-07
5.14468087e-09
6.47505474e-07
5.14809983e-09
6.46963934e-07
5.13310549e-09
6.46421245e-07
5.09791243e-09
6.45879587e-07
5.04087651e-09
6.45341397e-07
4.96047326e-09
6.44809368e-07
4.85529766e-09
6.44286436e-07
4.72407852e-09
6.43775773e-07
4.56571338e-09
6.43280764e-07
4.3792886e-09
6.42804995e-07
4.16408366e-09
6.42352233e-07
3.91958229e-09
6.41926402e-07
3.64547155e-09
6.41531561e-07
3.34163342e-09
6.41171881e-07
3.00814835e-09
6.40851612e-07
2.64529326e-09
6.40575045e-07
2.2535425e-09
6.40346407e-07
1.8335969e-09
6.40169771e-07
1.38639622e-09
6.40049634e-07
9.1309554e-10
6.3999188e-07
4.14782172e-10
6.4000034e-07
-1.05999244e-10
6.40078277e-07
-6.465539e-10
6.40229553e-07
-1.20457938e-09
6.4045763e-07
-1.77731678e-09
6.40765516e-07
-2.36141596e-09
6.41155435e-07
-2.95284712e-09
6.41628846e-07
-3.54708372e-09
6.42186395e-07
-4.13909091e-09
6.42827802e-07
-4.72333336e-09
6.43551748e-07
-5.29386962e-09
6.44355801e-07
-5.8444709e-09
6.45236361e-07
-6.36875146e-09
6.46188648e-07
-6.8603424e-09
6.47206722e-07
-7.31307891e-09
6.48283553e-07
-7.72118387e-09
6.49411123e-07
-8.0794716e-09
6.5058058e-07
-8.38352972e-09
6.51782413e-07
-8.62986248e-09
6.53006666e-07
-8.81602656e-09
6.54243167e-07
-8.94070236e-09
6.55481763e-07
-9.00373628e-09
6.56712554e-07
-9.0061089e-09
6.57926111e-07
-8.94989771e-09
6.59113667e-07
-8.83815318e-09
6.60267274e-07
-8.67478265e-09
6.61379927e-07
-8.46438471e-09
6.6244564e-07
-8.2120883e-09
6.63459488e-07
-7.9233647e-09
6.6441761e-07
-7.60387252e-09
6.65317181e-07
-7.25930026e-09
6.66156359e-07
-6.89521581e-09
6.66934207e-07
-6.51696046e-09
6.67650602e-07
-6.12955244e-09
6.68306144e-07
-5.73760486e-09
6.68902046e-07
-5.34528574e-09
6.69440038e-07
-4.95628634e-09
6.69922265e-07
-4.5738003e-09
6.70351195e-07
-4.20053621e-09
6.70729539e-07
-3.83872834e-09
6.71060175e-07
-3.49016665e-09
6.71346091e-07
-3.15622273e-09
6.71590335e-07
-2.83789327e-09
6.71795969e-07
-2.53583878e-09
6.71966015e-07
-2.25042159e-09
6.72103433e-07
-1.9817565e-09
6.72211095e-07
-1.72975908e-09
6.72291789e-07
-1.4941726e-09
6.72348186e-07
-1.27458959e-09
6.7238281e-07
-1.07050469e-09
6.7239811e-07
-8.81365067e-10
6.72396561e-07
-7.06603479e-10
6.7238015e-07
-5.45677463e-10
6.72350849e-07
-3.98081659e-10
6.72310243e-07
-2.62975797e-10
6.72259052e-07
-1.39138626e-10
6.72197638e-07
-2.59201179e-11
6.72128352e-07
7.50649271e-11
6.72053098e-07
1.66345716e-10
6.71972443e-07
2.47772248e-10
6.71887125e-07
3.20181126e-10
6.71797674e-07
3.84233113e-10
6.71704718e-07
4.4057845e-10
6.71608867e-07
4.89876149e-10
6.71510669e-07
5.32722625e-10
6.71410637e-07
5.69678814e-10
6.71309252e-07
6.01278993e-10
6.71206951e-07
6.28019774e-10
6.71104128e-07
6.50357265e-10
6.71001137e-07
6.68708132e-10
6.70898294e-07
6.83452147e-10
6.70795886e-07
6.94934102e-10
6.70694167e-07
7.03465422e-10
6.70593368e-07
7.09328557e-10
6.70493692e-07
7.1278047e-10
6.7039532e-07
7.14054566e-10
6.70298409e-07
7.13364455e-10
6.70203093e-07
7.10905342e-10
6.70109485e-07
7.06856461e-10
6.70017683e-07
7.01381079e-10
6.69927764e-07
6.94629438e-10
6.69839793e-07
6.86737929e-10
6.69753823e-07
6.77831298e-10
6.69669897e-07
6.68022683e-10
6.69588047e-07
6.57414988e-10
6.69508299e-07
6.46100388e-10
6.69430674e-07
6.3416202e-10
6.69355187e-07
6.21674604e-10
6.69281846e-07
6.08704147e-10
6.69210658e-07
5.9530961e-10
6.69141626e-07
5.81543547e-10
6.69074749e-07
5.67451834e-10
6.69010025e-07
5.53075202e-10
6.6894745e-07
5.38449719e-10
6.68887015e-07
5.23606363e-10
6.68828713e-07
5.08572301e-10
6.68772535e-07
4.93370503e-10
6.68718469e-07
4.78020348e-10
6.68666505e-07
4.62536596e-10
6.6861663e-07
4.46930566e-10
6.68568831e-07
4.31207145e-10
6.68523091e-07
4.15376704e-10
6.68479398e-07
3.99396332e-10
6.68437687e-07
3.83445851e-10
6.68398012e-07
3.66696074e-10
6.6835967e-07
3.52841934e-10
3.2613618e-10
6.66712784e-07
-2.70910079e-10
6.66822127e-07
-6.08852179e-10
6.66954982e-07
-6.70475093e-10
6.67070727e-07
-4.51201042e-10
6.67126873e-07
1.93227801e-11
6.67090069e-07
6.73201458e-10
6.66946701e-07
1.40946255e-09
6.66696881e-07
2.13165804e-09
6.66352935e-07
2.76027583e-09
6.65935467e-07
3.23942859e-09
6.65470083e-07
3.53598491e-09
6.64984514e-07
3.63819882e-09
6.64506199e-07
3.55259524e-09
6.64060571e-07
3.29772626e-09
6.63670065e-07
2.89830007e-09
6.63353097e-07
2.38517639e-09
6.63122176e-07
1.80182309e-09
6.62981078e-07
1.21085862e-09
6.62922117e-07
6.924021e-10
6.62924924e-07
3.3092095e-10
6.62957111e-07
1.95191666e-10
6.62979069e-07
3.18721814e-10
6.62953914e-07
6.88003403e-10
6.62852631e-07
1.24850598e-09
6.62657565e-07
1.91800362e-09
6.62364135e-07
2.60424952e-09
6.61980221e-07
3.22191186e-09
6.61523784e-07
3.70437461e-09
6.61019522e-07
4.00907121e-09
6.60495423e-07
4.11721262e-09
6.59979824e-07
4.03015941e-09
6.59499147e-07
3.76500374e-09
6.59076149e-07
3.35139404e-09
6.58728402e-07
2.83042591e-09
6.58466661e-07
2.25486748e-09
6.58293124e-07
1.68867376e-09
6.58199738e-07
1.20345527e-09
6.58167363e-07
8.70181134e-10
6.58166922e-07
7.46663999e-10
6.58163516e-07
8.63489544e-10
6.58122284e-07
1.21393881e-09
6.58014562e-07
1.75204178e-09
6.57823008e-07
2.40017284e-09
6.57543898e-07
3.06593101e-09
6.57186435e-07
3.66321666e-09
6.56769389e-07
4.13123121e-09
6.56315797e-07
4.44579946e-09
6.55847267e-07
4.61962794e-09
6.55379585e-07
4.69210161e-09
6.54920735e-07
4.71307742e-09
6.54471481e-07
4.72691467e-09
6.5402774e-07
4.7620299e-09
6.53583542e-07
4.82828533e-09
6.53133453e-07
4.92106826e-09
6.52673844e-07
5.02863511e-09
6.52203033e-07
5.13898528e-09
6.51720714e-07
5.24388234e-09
6.51227206e-07
5.33960892e-09
6.50722914e-07
5.42552983e-09
6.50208128e-07
5.50202947e-09
6.49683082e-07
5.56899209e-09
6.49148126e-07
5.625235e-09
6.48603885e-07
5.66868372e-09
6.48051342e-07
5.69684517e-09
6.47491852e-07
5.70721067e-09
6.46927123e-07
5.69745571e-09
6.46359191e-07
5.66546963e-09
6.45790395e-07
5.60930258e-09
6.45223366e-07
5.52713893e-09
6.44661013e-07
5.41729717e-09
6.44106501e-07
5.27824772e-09
6.43563232e-07
5.10865309e-09
6.43034817e-07
4.90738965e-09
6.42525055e-07
4.67354926e-09
6.42037912e-07
4.40644756e-09
6.41577506e-07
4.10561898e-09
6.41148098e-07
3.7708054e-09
6.40754072e-07
3.40196075e-09
6.40399925e-07
2.99925162e-09
6.40090245e-07
2.56305998e-09
6.39829704e-07
2.09400312e-09
6.39623034e-07
1.59296268e-09
6.39474863e-07
1.06119732e-09
6.39389099e-07
5.00508554e-10
6.39370502e-07
-8.73927012e-11
6.39424419e-07
-7.00443608e-10
6.39555486e-07
-1.33558515e-09
6.39767736e-07
-1.98946741e-09
6.40064615e-07
-2.65816152e-09
6.40449042e-07
-3.33710792e-09
6.40923199e-07
-4.02104113e-09
6.41488357e-07
-4.70401813e-09
6.42144752e-07
-5.37946619e-09
6.42891451e-07
-6.04027758e-09
6.4372624e-07
-6.67894186e-09
6.4464554e-07
-7.28770595e-09
6.45644357e-07
-7.8587897e-09
6.46716293e-07
-8.38462279e-09
6.47853604e-07
-8.85808286e-09
6.49047324e-07
-9.27275971e-09
6.50287437e-07
-9.62319435e-09
6.51563108e-07
-9.90507069e-09
6.52862949e-07
-1.01153926e-08
6.54175311e-07
-1.02525786e-08
6.55488582e-07
-1.03165143e-08
6.56791481e-07
-1.03085095e-08
6.58073326e-07
-1.02312419e-08
6.59324268e-07
-1.00885933e-08
6.60535477e-07
-9.8854911e-09
6.61699278e-07
-9.62769063e-09
6.62809243e-07
-9.3215633e-09
6.63860216e-07
-8.97385608e-09
6.64848306e-07
-8.59149258e-09
6.65770841e-07
-8.1813764e-09
6.66626277e-07
-7.75020786e-09
6.67414102e-07
-7.30435662e-09
6.68134711e-07
-6.84975003e-09
6.68789282e-07
-6.39178199e-09
6.69379645e-07
-5.93527304e-09
6.69908158e-07
-5.48444239e-09
6.70377589e-07
-5.04289454e-09
6.70791013e-07
-4.61364316e-09
6.71151716e-07
-4.19913266e-09
6.71463107e-07
-3.80128028e-09
6.71728657e-07
-3.42151338e-09
6.71951831e-07
-3.06082591e-09
6.72136045e-07
-2.7198304e-09
6.72284635e-07
-2.39880719e-09
6.72400827e-07
-2.09776093e-09
6.72487707e-07
-1.81646794e-09
6.72548204e-07
-1.55451552e-09
6.72585097e-07
-1.31134355e-09
6.72600999e-07
-1.08628308e-09
6.72598326e-07
-8.78583733e-10
6.72579257e-07
-6.87442065e-10
6.7254571e-07
-5.12056257e-10
6.72499316e-07
-3.51636406e-10
6.72441831e-07
-2.05464778e-10
6.72375594e-07
-7.29048187e-11
6.72302724e-07
4.69336076e-11
6.72223097e-07
1.54650905e-10
6.72137981e-07
2.51419428e-10
6.72047912e-07
3.37791122e-10
6.71953641e-07
4.1439808e-10
6.71855849e-07
4.81966963e-10
6.71755159e-07
5.41206656e-10
6.7165216e-07
5.92811884e-10
6.71547381e-07
6.37435411e-10
6.71441305e-07
6.75686738e-10
6.71334378e-07
7.08137656e-10
6.71227008e-07
7.35320202e-10
6.7111957e-07
7.57725074e-10
6.71012405e-07
7.75803122e-10
6.70905819e-07
7.89969604e-10
6.7080008e-07
8.00606133e-10
6.70695419e-07
8.08060572e-10
6.70592035e-07
8.12649617e-10
6.70490093e-07
8.14660893e-10
6.70389734e-07
8.14354215e-10
6.70291075e-07
8.11965533e-10
6.70194216e-07
8.07708564e-10
6.70099239e-07
8.01777961e-10
6.70006217e-07
7.94349836e-10
6.69915208e-07
7.85585558e-10
6.69826263e-07
7.75631068e-10
6.69739424e-07
7.64619566e-10
6.69654725e-07
7.52671699e-10
6.69572195e-07
7.39897248e-10
6.69491853e-07
7.26394646e-10
6.69413716e-07
7.12252915e-10
6.69337794e-07
6.97552331e-10
6.69264091e-07
6.82364005e-10
6.69192607e-07
6.66751643e-10
6.69123339e-07
6.50772104e-10
6.69056277e-07
6.34474938e-10
6.68991411e-07
6.17903957e-10
6.68928727e-07
6.01097667e-10
6.6886821e-07
5.84088743e-10
6.68809844e-07
5.66905481e-10
6.68753611e-07
5.49571461e-10
6.68699495e-07
5.32106386e-10
6.68647477e-07
5.14525167e-10
6.6859754e-07
4.96839498e-10
6.68549665e-07
4.79054899e-10
6.68503832e-07
4.61184183e-10
6.68460023e-07
4.43181763e-10
6.68418192e-07
4.25248256e-10
6.68378434e-07
4.06443184e-10
6.68340399e-07
3.90791584e-10
3.60604737e-10
6.66715289e-07
-3.19307326e-10
6.66829748e-07
-7.234342e-10
6.66968061e-07
-8.08864716e-10
6.67085865e-07
-5.68960805e-10
6.67142506e-07
-3.67913152e-11
6.67108897e-07
7.06916704e-10
6.66966224e-07
1.55224885e-09
6.66713547e-07
2.38446952e-09
6.66362849e-07
3.11111819e-09
6.65935119e-07
3.66730912e-09
6.65456898e-07
4.01435995e-09
6.64957333e-07
4.1379222e-09
6.64465537e-07
4.04455273e-09
6.64008639e-07
3.7547872e-09
6.63610553e-07
3.29655322e-09
6.6329073e-07
2.70517458e-09
6.63061996e-07
2.03074323e-09
6.62927476e-07
1.34558269e-09
6.62877773e-07
7.42331229e-10