/*--------------------------------*- C++ -*----------------------------------*\
| =========                 |                                                 |
| \\      /  F ield         | OpenFOAM: The Open Source CFD Toolbox           |
|  \\    /   O peration     | Version:  v2012                                 |
|   \\  /    A nd           | Website:  www.openfoam.com                      |
|    \\/     M anipulation  |                                                 |
\*---------------------------------------------------------------------------*/
FoamFile
{
    version     2.0;
    format      ascii;
    class       volScalarField;
    location    "2.64";
    object      rAU;
}
// * * * * * * * * * * * * * * * * * * * * * * * * * * * * * * * * * * * * * //

dimensions      [0 0 1 0 0 0 0];


internalField   nonuniform List<scalar> 
28416
(
0.000545322633
0.000545330456
0.000545329943
0.000545329605
0.000545326408
0.0005453229
0.000545319801
0.000545317546
0.000545316442
0.000545316668
0.000545318255
0.0005453211
0.000545324982
0.000545329621
0.000545334719
0.000545339971
0.000545345034
0.000545349516
0.000545353009
0.000545355168
0.000545355828
0.000545355091
0.000545353306
0.000545350967
0.000545348642
0.000545346864
0.00054534605
0.00054534646
0.000545348197
0.000545351218
0.000545355368
0.000545360396
0.000545365979
0.000545371737
0.000545377254
0.000545382106
0.000545385906
0.000545388364
0.000545389351
0.000545388926
0.000545387347
0.000545385045
0.000545382556
0.000545380418
0.000545379061
0.000545378722
0.00054537942
0.000545380983
0.000545383133
0.000545385575
0.000545388079
0.000545390515
0.000545392857
0.000545395146
0.00054539745
0.00054539983
0.000545402324
0.00054540495
0.000545407711
0.000545410607
0.000545413642
0.000545416824
0.000545420164
0.000545423674
0.000545427361
0.000545431231
0.000545435289
0.000545439532
0.000545443956
0.000545448557
0.000545453323
0.00054545824
0.000545463294
0.000545468463
0.000545473721
0.000545479041
0.00054548439
0.000545489731
0.000545495027
0.000545500232
0.000545505303
0.000545510222
0.000545514967
0.000545519524
0.000545523712
0.000545521047
0.000545517454
0.000545513298
0.000545508586
0.000545503331
0.000545497548
0.000545491261
0.000545484496
0.000545477288
0.000545469678
0.000545461713
0.000545453443
0.000545444928
0.000545436227
0.000545427401
0.000545418516
0.000545409633
0.000545400813
0.000545392115
0.000545383597
0.000545375308
0.000545367297
0.000545359602
0.000545352258
0.000545345294
0.000545338734
0.00054533259
0.000545326874
0.00054532159
0.000545316737
0.000545312308
0.000545308297
0.00054530469
0.00054530147
0.000545298625
0.000545296134
0.000545293977
0.000545292134
0.000545290589
0.000545289318
0.000545288303
0.000545287529
0.000545286976
0.000545286623
0.000545286456
0.000545286453
0.000545286597
0.000545286875
0.000545287267
0.000545287758
0.000545288336
0.000545288982
0.000545289681
0.000545290421
0.000545291182
0.000545291952
0.000545292718
0.000545293172
0.000545292853
0.000545292619
0.000545292514
0.000545292523
0.000545292632
0.000545292832
0.000545293109
0.000545293452
0.000545293855
0.000545294307
0.0005452948
0.000545295332
0.000545295894
0.000545296481
0.000545297091
0.000545297717
0.000545298359
0.00054529901
0.000545299673
0.000545300339
0.000545301012
0.000545301685
0.000545302358
0.000545303028
0.000545303697
0.000545304359
0.000545305014
0.000545305663
0.000545306302
0.000545306931
0.000545307552
0.000545308161
0.000545308757
0.000545309344
0.000545309918
0.000545310479
0.000545311026
0.000545311562
0.000545312083
0.00054531259
0.000545313085
0.000545313564
0.000545314029
0.00054531448
0.00054531492
0.000545315321
0.000545324686
0.000545315603
0.000545322963
0.000545322175
0.000545322445
0.000545320905
0.000545318255
0.000545316104
0.000545314847
0.000545314714
0.000545315785
0.000545318006
0.000545321222
0.000545325193
0.000545329649
0.000545334312
0.000545338915
0.000545343169
0.000545346772
0.000545349435
0.00054535095
0.000545351264
0.000545350531
0.000545349089
0.000545347405
0.000545345977
0.000545345238
0.000545345491
0.000545346878
0.000545349396
0.000545352917
0.00054535723
0.000545362069
0.000545367136
0.000545372117
0.000545376693
0.000545380563
0.000545383474
0.00054538526
0.000545385889
0.00054538549
0.000545384354
0.000545382898
0.000545381588
0.000545380842
0.00054538095
0.00054538202
0.000545383973
0.000545386594
0.000545389609
0.000545392761
0.000545395872
0.000545398865
0.000545401745
0.000545404572
0.000545407415
0.000545410329
0.000545413342
0.000545416465
0.000545419694
0.000545423025
0.000545426456
0.000545429992
0.000545433636
0.000545437394
0.000545441267
0.000545445253
0.000545449352
0.000545453556
0.000545457854
0.00054546224
0.000545466697
0.000545471208
0.000545475757
0.00054548032
0.000545484873
0.000545489391
0.000545493842
0.000545498195
0.00054550242
0.000545506479
0.000545510339
0.000545513971
0.000545517338
0.000545520397
0.000545522313
0.000545518833
0.000545514795
0.000545510168
0.000545504949
0.000545499147
0.000545492776
0.000545485862
0.000545478433
0.000545470528
0.000545462195
0.000545453485
0.000545444457
0.00054543518
0.000545425718
0.000545416146
0.000545406537
0.000545396962
0.000545387494
0.0005453782
0.000545369145
0.000545360386
0.000545351976
0.000545343957
0.000545336368
0.000545329236
0.000545322584
0.000545316423
0.000545310758
0.000545305592
0.000545300916
0.000545296718
0.000545292986
0.000545289696
0.000545286829
0.000545284362
0.000545282268
0.000545280523
0.0005452791
0.000545277977
0.000545277127
0.000545276526
0.000545276153
0.000545275984
0.000545275998
0.000545276178
0.000545276502
0.000545276952
0.000545277515
0.000545278173
0.00054527891
0.000545279715
0.000545280571
0.000545281467
0.000545282395
0.000545283343
0.000545284307
0.000545285015
0.00054528513
0.000545285175
0.000545285316
0.000545285542
0.000545285844
0.000545286214
0.000545286646
0.00054528713
0.000545287657
0.000545288224
0.000545288822
0.000545289446
0.000545290094
0.000545290759
0.000545291437
0.000545292126
0.000545292822
0.000545293523
0.000545294224
0.000545294928
0.000545295627
0.000545296325
0.000545297017
0.000545297702
0.000545298379
0.000545299048
0.000545299707
0.000545300354
0.000545300991
0.000545301615
0.000545302226
0.000545302826
0.000545303411
0.000545303981
0.00054530454
0.000545305083
0.000545305611
0.000545306125
0.000545306625
0.000545307109
0.000545307578
0.000545308034
0.000545308473
0.000545308897
0.000545309308
0.000545309706
0.000545310077
0.000545319377
0.000545315259
0.000545322183
0.000545321304
0.000545321786
0.000545321416
0.000545318139
0.000545315231
0.000545313193
0.000545312349
0.00054531285
0.000545314685
0.000545317719
0.000545321713
0.000545326384
0.000545331436
0.000545336573
0.000545341467
0.000545345748
0.00054534904
0.000545351032
0.00054535159
0.000545350829
0.000545349094
0.000545346896
0.000545344809
0.000545343353
0.000545342923
0.000545343742
0.00054534586
0.000545349179
0.000545353493
0.000545358528
0.000545363961
0.000545369444
0.000545374611
0.000545379099
0.000545382575
0.000545384794
0.000545385652
0.000545385233
0.000545383821
0.000545381868
0.000545379912
0.000545378475
0.000545377948
0.000545378518
0.000545380148
0.000545382616
0.000545385608
0.000545388808
0.000545391983
0.000545395017
0.000545397903
0.000545400701
0.000545403496
0.000545406358
0.000545409328
0.000545412419
0.000545415631
0.000545418958
0.000545422399
0.000545425959
0.000545429643
0.000545433459
0.00054543741
0.000545441496
0.000545445718
0.000545450068
0.000545454538
0.00054545912
0.000545463799
0.00054546856
0.000545473385
0.000545478252
0.000545483136
0.000545488013
0.000545492852
0.00054549762
0.000545502286
0.000545506812
0.000545511161
0.000545515297
0.000545519182
0.000545522785
0.000545524721
0.000545520869
0.000545516397
0.000545511298
0.000545505573
0.000545499232
0.000545492292
0.000545484781
0.00054547673
0.000545468183
0.000545459194
0.000545449819
0.000545440127
0.000545430192
0.00054542009
0.000545409903
0.000545399714
0.000545389605
0.000545379654
0.000545369938
0.000545360528
0.000545351485
0.000545342865
0.000545334712
0.000545327064
0.000545319945
0.000545313376
0.000545307363
0.000545301906
0.000545297001
0.000545292632
0.000545288779
0.000545285423
0.000545282536
0.000545280088
0.000545278052
0.000545276396
0.000545275089
0.0005452741
0.000545273403
0.000545272967
0.000545272765
0.000545272776
0.000545272972
0.000545273332
0.000545273837
0.000545274466
0.000545275202
0.00054527603
0.000545276933
0.000545277898
0.000545278912
0.000545279961
0.00054528103
0.000545282111
0.000545283188
0.000545284199
0.000545284338
0.000545284261
0.000545284294
0.000545284431
0.000545284658
0.000545284964
0.000545285341
0.000545285781
0.000545286274
0.000545286813
0.000545287394
0.000545288007
0.000545288647
0.000545289311
0.000545289993
0.000545290687
0.000545291395
0.000545292108
0.000545292826
0.000545293546
0.000545294267
0.000545294985
0.000545295701
0.000545296411
0.000545297114
0.000545297809
0.000545298496
0.000545299173
0.000545299838
0.000545300493
0.000545301135
0.000545301763
0.00054530238
0.000545302982
0.00054530357
0.000545304145
0.000545304705
0.00054530525
0.00054530578
0.000545306297
0.000545306797
0.000545307283
0.000545307755
0.000545308211
0.000545308652
0.000545309079
0.000545309495
0.000545309877
0.000545319195
0.000545314888
0.000545321292
0.000545320153
0.000545320691
0.000545321381
0.000545317344
0.000545313597
0.000545310782
0.000545309318
0.00054530941
0.000545311071
0.000545314161
0.000545318416
0.000545323516
0.00054532912
0.000545334887
0.000545340432
0.00054534532
0.000545349094
0.000545351368
0.000545351944
0.000545350903
0.00054534861
0.000545345659
0.000545342745
0.00054534051
0.00054533945
0.000545339854
0.0005453418
0.000545345187
0.000545349781
0.000545355261
0.000545361255
0.000545367352
0.000545373122
0.000545378132
0.000545381986
0.000545384374
0.000545385149
0.000545384381
0.000545382381
0.000545379673
0.000545376902
0.000545374699
0.000545373553
0.000545373707
0.00054537513
0.00054537757
0.000545380649
0.000545383983
0.000545387285
0.000545390407
0.000545393333
0.000545396135
0.000545398916
0.000545401765
0.000545404734
0.000545407844
0.000545411094
0.000545414479
0.000545417999
0.000545421657
0.000545425463
0.000545429426
0.000545433551
0.000545437842
0.000545442298
0.000545446914
0.000545451683
0.000545456597
0.00054546164
0.000545466798
0.000545472052
0.00054547738
0.000545482754
0.000545488151
0.000545493537
0.00054549888
0.000545504146
0.000545509298
0.000545514296
0.000545519105
0.000545523678
0.000545527962
0.000545530269
0.000545526031
0.00054552112
0.000545515533
0.000545509265
0.000545502325
0.000545494731
0.000545486513
0.000545477705
0.000545468357
0.000545458529
0.000545448286
0.000545437706
0.000545426875
0.000545415882
0.00054540482
0.000545393788
0.000545382879
0.000545372185
0.000545361792
0.000545351783
0.000545342225
0.00054533318
0.000545324696
0.000545316811
0.000545309549
0.000545302927
0.000545296947
0.000545291603
0.000545286882
0.000545282763
0.000545279216
0.000545276214
0.000545273719
0.000545271695
0.000545270105
0.000545268911
0.000545268075
0.00054526756
0.000545267333
0.000545267361
0.000545267612
0.00054526806
0.000545268676
0.000545269436
0.00054527032
0.000545271306
0.000545272376
0.000545273515
0.000545274706
0.000545275934
0.000545277186
0.00054527845
0.000545279715
0.000545280983
0.000545282249
0.000545282864
0.000545282741
0.000545282737
0.000545282836
0.000545283034
0.000545283317
0.000545283676
0.000545284102
0.000545284589
0.000545285128
0.000545285709
0.00054528633
0.000545286983
0.000545287661
0.000545288362
0.00054528908
0.000545289811
0.000545290553
0.000545291301
0.000545292053
0.000545292806
0.000545293559
0.000545294307
0.000545295053
0.000545295791
0.000545296522
0.000545297243
0.000545297956
0.000545298658
0.000545299347
0.000545300025
0.00054530069
0.000545301341
0.000545301979
0.000545302603
0.000545303211
0.000545303807
0.000545304387
0.000545304952
0.000545305501
0.000545306036
0.000545306556
0.000545307059
0.000545307549
0.000545308023
0.000545308482
0.000545308927
0.000545309362
0.000545309762
0.000545319115
0.000545314528
0.000545320455
0.000545319156
0.000545319841
0.00054532178
0.000545317026
0.000545312464
0.000545308836
0.000545306658
0.000545306201
0.000545307517
0.000545310486
0.000545314843
0.000545320248
0.000545326338
0.000545332736
0.000545339007
0.000545344638
0.000545349075
0.000545351821
0.000545352598
0.000545351462
0.000545348798
0.000545345254
0.000545341602
0.000545338584
0.000545336797
0.000545336612
0.000545338167
0.000545341387
0.000545346043
0.000545351798
0.00054535825
0.000545364944
0.000545371392
0.000545377083
0.000545381528
0.000545384329
0.000545385267
0.000545384376
0.000545381981
0.000545378658
0.000545375141
0.00054537217
0.000545370334
0.000545369955
0.00054537104
0.00054537332
0.000545376371
0.000545379746
0.0005453831
0.000545386246
0.000545389157
0.000545391909
0.000545394622
0.000545397401
0.000545400311
0.000545403378
0.000545406604
0.000545409983
0.000545413514
0.000545417205
0.000545421067
0.00054542511
0.000545429344
0.000545433773
0.0005454384
0.000545443219
0.000545448224
0.000545453407
0.000545458755
0.000545464251
0.000545469878
0.000545475611
0.000545481425
0.000545487295
0.000545493187
0.000545499067
0.000545504903
0.000545510653
0.000545516276
0.000545521732
0.000545526972
0.000545531954
0.000545535057
0.000545530467
0.000545525146
0.000545519088
0.000545512289
0.000545504759
0.000545496514
0.000545487588
0.000545478018
0.000545467858
0.000545457175
0.000545446043
0.000545434552
0.000545422799
0.000545410887
0.000545398925
0.000545387026
0.000545375299
0.000545363851
0.00054535278
0.000545342181
0.000545332128
0.000545322692
0.000545313921
0.000545305855
0.000545298515
0.000545291915
0.00054528605
0.000545280905
0.00054527646
0.000545272681
0.00054526953
0.00054526697
0.000545264952
0.000545263429
0.00054526236
0.000545261693
0.000545261387
0.000545261397
0.000545261687
0.000545262216
0.00054526295
0.00054526386
0.000545264915
0.000545266089
0.000545267363
0.000545268712
0.000545270119
0.00054527157
0.000545273048
0.00054527454
0.000545276039
0.000545277533
0.000545279015
0.00054528048
0.000545281543
0.00054528152
0.000545281431
0.000545281461
0.000545281597
0.000545281832
0.000545282152
0.000545282549
0.000545283012
0.000545283536
0.00054528411
0.000545284727
0.000545285383
0.00054528607
0.000545286781
0.000545287515
0.000545288264
0.000545289024
0.000545289795
0.000545290571
0.000545291349
0.000545292127
0.000545292905
0.000545293678
0.000545294448
0.00054529521
0.000545295964
0.000545296707
0.000545297442
0.000545298165
0.000545298875
0.000545299574
0.000545300259
0.000545300929
0.000545301586
0.000545302228
0.000545302855
0.000545303468
0.000545304065
0.000545304647
0.000545305212
0.000545305765
0.000545306301
0.000545306821
0.000545307327
0.000545307818
0.000545308293
0.000545308754
0.000545309206
0.000545309618
0.000545318989
0.000545314148
0.00054531955
0.000545318031
0.000545318836
0.000545321855
0.000545316615
0.000545311207
0.000545306754
0.000545303874
0.000545302905
0.000545303933
0.000545306848
0.00054531137
0.000545317133
0.000545323736
0.00054533076
0.000545337716
0.000545344022
0.000545349039
0.000545352188
0.000545353115
0.000545351823
0.000545348704
0.00054534448
0.000545340031
0.000545336217
0.000545333735
0.000545333033
0.000545334293
0.000545337455
0.000545342278
0.000545348395
0.000545355359
0.000545362664
0.000545369758
0.000545376064
0.000545381024
0.000545384169
0.000545385216
0.000545384158
0.000545381315
0.000545377316
0.00054537299
0.000545369196
0.000545366637
0.000545365711
0.000545366455
0.000545368587
0.000545371627
0.000545375065
0.000545378493
0.000545381687
0.000545384601
0.000545387319
0.000545389976
0.000545392695
0.000545395555
0.000545398589
0.000545401802
0.000545405188
0.000545408749
0.000545412493
0.000545416434
0.000545420587
0.000545424964
0.00054542957
0.000545434412
0.000545439486
0.000545444785
0.000545450305
0.00054545603
0.000545461944
0.00054546803
0.000545474262
0.000545480615
0.00054548706
0.000545493563
0.000545500088
0.000545506601
0.000545513059
0.000545519418
0.000545525637
0.000545531663
0.000545537444
0.000545541878
0.000545536946
0.000545531212
0.000545524668
0.000545517307
0.000545509136
0.000545500173
0.000545490449
0.000545480005
0.000545468901
0.000545457211
0.000545445021
0.000545432433
0.000545419561
0.000545406526
0.000545393454
0.000545380481
0.000545367734
0.000545355337
0.000545343408
0.000545332053
0.000545321358
0.000545311401
0.000545302236
0.000545293902
0.000545286419
0.000545279793
0.000545274012
0.000545269052
0.000545264881
0.000545261453
0.000545258719
0.000545256628
0.000545255121
0.000545254139
0.00054525363
0.000545253536
0.000545253804
0.000545254384
0.000545255233
0.000545256307
0.000545257566
0.000545258979
0.000545260513
0.000545262141
0.00054526384
0.000545265588
0.000545267367
0.000545269162
0.000545270959
0.000545272744
0.000545274509
0.000545276242
0.000545277936
0.00054527951
0.000545279774
0.000545279637
0.000545279632
0.000545279746
0.000545279962
0.000545280274
0.000545280667
0.000545281133
0.000545281663
0.000545282249
0.000545282883
0.000545283556
0.000545284265
0.000545285002
0.000545285762
0.000545286542
0.000545287336
0.000545288139
0.000545288951
0.000545289767
0.000545290584
0.000545291398
0.000545292212
0.000545293018
0.00054529382
0.000545294612
0.000545295395
0.000545296167
0.000545296929
0.000545297677
0.000545298412
0.000545299135
0.000545299843
0.000545300536
0.000545301215
0.000545301879
0.000545302526
0.00054530316
0.000545303777
0.000545304379
0.000545304963
0.000545305534
0.000545306089
0.000545306626
0.000545307151
0.000545307658
0.000545308151
0.000545308628
0.000545309097
0.000545309525
0.000545318927
0.000545313764
0.000545318647
0.000545316927
0.000545317867
0.000545321523
0.000545316252
0.000545310006
0.000545304721
0.000545301113
0.000545299592
0.000545300285
0.0005453031
0.000545307752
0.000545313855
0.000545320979
0.000545328666
0.000545336374
0.000545343444
0.000545349137
0.000545352766
0.000545353895
0.000545352497
0.000545348981
0.000545344122
0.000545338893
0.000545334261
0.000545331032
0.000545329738
0.000545330619
0.000545333642
0.000545338567
0.000545345009
0.000545352485
0.000545360441
0.00054536826
0.00054537528
0.000545380846
0.000545384394
0.000545385573
0.000545384351
0.000545381067
0.000545376408
0.000545371292
0.000545366688
0.0005453634
0.000545361905
0.000545362274
0.000545364212
0.000545367196
0.000545370648
0.000545374103
0.000545377295
0.000545380166
0.000545382804
0.000545385361
0.000545387977
0.000545390745
0.000545393705
0.000545396864
0.000545400219
0.000545403772
0.000545407533
0.00054541152
0.000545415751
0.000545420243
0.000545425003
0.00054543004
0.00054543535
0.00054544093
0.000545446773
0.000545452865
0.000545459189
0.000545465727
0.000545472453
0.00054547934
0.00054548636
0.000545493476
0.000545500653
0.000545507855
0.000545515037
0.000545522154
0.000545529163
0.000545536009
0.000545542638
0.000545548664
0.000545543782
0.000545537658
0.000545530643
0.000545522725
0.000545513908
0.000545504206
0.00054549365
0.000545482283
0.000545470169
0.000545457391
0.000545444046
0.000545430251
0.000545416139
0.000545401851
0.000545387539
0.000545373361
0.000545359468
0.000545346009
0.00054533312
0.000545320927
0.00054530953
0.000545299013
0.000545289437
0.000545280839
0.000545273237
0.000545266628
0.00054526099
0.000545256286
0.00054525247
0.000545249482
0.000545247257
0.000545245729
0.000545244825
0.000545244475
0.000545244613
0.000545245171
0.000545246088
0.000545247307
0.000545248777
0.00054525045
0.000545252282
0.000545254239
0.000545256286
0.000545258395
0.000545260543
0.000545262707
0.000545264869
0.000545267017
0.000545269136
0.000545271217
0.000545273255
0.000545275242
0.000545277178
0.0005452781
0.000545277904
0.00054527785
0.000545277923
0.000545278113
0.000545278404
0.000545278788
0.000545279251
0.000545279784
0.000545280377
0.000545281024
0.000545281716
0.000545282445
0.000545283208
0.000545283996
0.000545284803
0.000545285629
0.000545286466
0.00054528731
0.000545288161
0.000545289013
0.000545289865
0.000545290713
0.000545291559
0.000545292396
0.000545293227
0.000545294048
0.000545294859
0.000545295657
0.000545296444
0.000545297217
0.000545297975
0.000545298721
0.000545299451
0.000545300165
0.000545300865
0.000545301548
0.000545302214
0.000545302866
0.000545303501
0.00054530412
0.000545304722
0.00054530531
0.000545305881
0.000545306435
0.000545306976
0.0005453075
0.000545308008
0.000545308501
0.000545308986
0.000545309425
0.000545318847
0.000545313372
0.000545317719
0.000545315788
0.000545316862
0.000545320983
0.000545315904
0.000545308801
0.000545302668
0.000545298324
0.000545296248
0.000545296612
0.00054529934
0.000545304142
0.000545310607
0.000545318269
0.000545326628
0.00054533508
0.00054534289
0.000545349225
0.000545353304
0.000545354614
0.000545353083
0.000545349138
0.000545343617
0.000545337594
0.000545332148
0.000545328187
0.000545326328
0.000545326863
0.000545329783
0.000545334845
0.000545341639
0.000545349644
0.000545358249
0.000545366771
0.000545374478
0.000545380636
0.000545384607
0.000545385969
0.000545384634
0.000545380933
0.000545375605
0.000545369663
0.000545364196
0.000545360127
0.000545358018
0.000545357978
0.000545359701
0.000545362612
0.000545366071
0.000545369548
0.000545372736
0.000545375558
0.000545378107
0.00054538055
0.000545383047
0.000545385703
0.000545388568
0.000545391653
0.000545394958
0.000545398485
0.000545402249
0.000545406271
0.000545410575
0.000545415179
0.000545420096
0.000545425337
0.0005454309
0.000545436783
0.00054544298
0.000545449478
0.00054545626
0.000545463306
0.000545470589
0.000545478081
0.000545485751
0.000545493561
0.000545501473
0.000545509449
0.000545517444
0.000545525411
0.000545533304
0.000545541067
0.000545548642
0.000545555964
0.000545552222
0.000545545723
0.000545538239
0.00054552975
0.000545520253
0.000545509757
0.000545498291
0.000545485898
0.000545472646
0.000545458626
0.00054544395
0.000545428751
0.000545413187
0.000545397425
0.000545381645
0.000545366038
0.000545350783
0.000545336061
0.000545322033
0.000545308846
0.000545296616
0.00054528544
0.000545275382
0.000545266479
0.000545258742
0.000545252159
0.000545246693
0.000545242291
0.00054523889
0.00054523641
0.000545234769
0.000545233884
0.000545233663
0.000545234024
0.000545234885
0.000545236168
0.000545237803
0.000545239723
0.000545241872
0.000545244196
0.000545246648
0.000545249193
0.000545251791
0.000545254416
0.000545257044
0.000545259652
0.000545262225
0.000545264751
0.000545267217
0.000545269612
0.000545271932
0.000545274166
0.000545275696
0.000545275716
0.000545275634
0.000545275696
0.000545275883
0.000545276183
0.000545276579
0.000545277062
0.00054527762
0.000545278243
0.000545278921
0.000545279648
0.000545280415
0.000545281215
0.000545282045
0.000545282895
0.000545283762
0.000545284644
0.000545285534
0.000545286428
0.000545287327
0.000545288224
0.000545289119
0.000545290007
0.000545290891
0.000545291764
0.00054529263
0.000545293483
0.000545294324
0.000545295152
0.000545295967
0.000545296767
0.000545297551
0.000545298321
0.000545299075
0.000545299811
0.000545300533
0.000545301238
0.000545301926
0.000545302598
0.000545303253
0.000545303891
0.000545304512
0.000545305118
0.000545305706
0.000545306278
0.000545306835
0.000545307376
0.0005453079
0.000545308409
0.00054530891
0.000545309363
0.000545318814
0.000545312972
0.000545316773
0.000545314629
0.000545315843
0.000545320438
0.000545315561
0.000545307593
0.000545300599
0.000545295503
0.000545292856
0.000545292876
0.000545295505
0.00054530045
0.000545307279
0.000545315493
0.000545324545
0.000545333777
0.000545342372
0.000545349397
0.00054535397
0.000545355429
0.000545353852
0.00054534949
0.000545343307
0.000545336476
0.000545330191
0.000545325469
0.000545323013
0.000545323174
0.000545325971
0.000545331162
0.000545338317
0.000545346875
0.000545356174
0.000545365464
0.000545373923
0.000545380723
0.000545385126
0.000545386639
0.00054538515
0.000545381008
0.000545375001
0.000545368236
0.000545361913
0.000545357064
0.000545354331
0.000545353864
0.000545355347
0.00054535816
0.000545361594
0.000545365061
0.000545368209
0.000545370946
0.000545373368
0.000545375657
0.000545377994
0.000545380498
0.00054538323
0.000545386205
0.000545389423
0.000545392891
0.000545396627
0.000545400658
0.000545405011
0.00054540971
0.000545414773
0.000545420211
0.000545426026
0.000545432217
0.000545438778
0.000545445695
0.000545452949
0.000545460521
0.000545468382
0.000545476499
0.000545484843
0.000545493373
0.00054550205
0.000545510836
0.000545519683
0.000545528545
0.000545537375
0.000545546115
0.000545554707
0.000545563083
0.000545561649
0.00054555481
0.000545546882
0.000545537835
0.000545527653
0.000545516338
0.000545503912
0.000545490417
0.000545475921
0.000545460526
0.000545444357
0.000545427569
0.000545410347
0.000545392889
0.000545375414
0.00054535815
0.000545341317
0.000545325131
0.000545309787
0.00054529546
0.000545282286
0.000545270375
0.000545259795
0.000545250581
0.000545242735
0.000545236232
0.000545231014
0.000545227009
0.000545224131
0.000545222276
0.00054522134
0.000545221217
0.0005452218
0.000545222984
0.000545224677
0.000545226785
0.000545229228
0.000545231931
0.000545234832
0.000545237871
0.000545240998
0.000545244176
0.000545247365
0.000545250537
0.00054525367
0.000545256742
0.000545259737
0.000545262648
0.000545265462
0.000545268176
0.00054527079
0.000545272945
0.000545273368
0.000545273268
0.000545273321
0.000545273509
0.000545273818
0.000545274234
0.00054527474
0.000545275329
0.000545275986
0.000545276703
0.00054527747
0.000545278281
0.000545279127
0.000545280001
0.0005452809
0.000545281815
0.000545282744
0.000545283683
0.000545284627
0.000545285572
0.000545286519
0.000545287461
0.000545288398
0.000545289327
0.000545290249
0.000545291159
0.000545292058
0.000545292944
0.000545293816
0.000545294673
0.000545295516
0.000545296343
0.000545297152
0.000545297947
0.000545298724
0.000545299482
0.000545300226
0.000545300951
0.000545301658
0.000545302349
0.000545303022
0.000545303678
0.000545304316
0.000545304938
0.000545305544
0.000545306132
0.000545306705
0.000545307261
0.000545307801
0.000545308325
0.000545308841
0.000545309306
0.000545318777
0.000545312563
0.00054531581
0.000545313449
0.000545314807
0.000545319886
0.00054531522
0.000545306373
0.000545298504
0.000545292642
0.000545289412
0.000545289082
0.000545291614
0.000545296712
0.000545303922
0.000545312707
0.000545322476
0.000545332505
0.000545341894
0.00054534961
0.000545354666
0.00054535575
0.000545354626
0.000545349833
0.000545342978
0.000545335334
0.000545328208
0.000545322725
0.000545319675
0.000545319469
0.000545322154
0.000545327487
0.000545335019
0.000545344147
0.000545354151
0.000545364211
0.000545373425
0.000545380877
0.000545385746
0.000545387465
0.000545385872
0.000545381308
0.000545374617
0.000545367003
0.000545359786
0.000545354115
0.000545350722
0.000545349795
0.000545351012
0.000545353703
0.000545357095
0.000545360533
0.000545363623
0.000545366251
0.000545368517
0.000545370621
0.000545372762
0.000545375077
0.000545377635
0.000545380458
0.00054538355
0.000545386922
0.000545390596
0.000545394604
0.000545398981
0.000545403756
0.00054540895
0.000545414579
0.000545420648
0.000545427156
0.000545434099
0.000545441462
0.000545449226
0.000545457369
0.000545465858
0.000545474661
0.000545483743
0.000545493063
0.000545502577
0.000545512247
0.000545522026
0.000545531865
0.000545541718
0.000545551529
0.000545561237
0.000545570774
0.000545572656
0.000545565521
0.000545557178
0.000545547582
0.000545536705
0.000545524533
0.000545511078
0.000545496376
0.000545480496
0.000545463548
0.000545445671
0.000545427046
0.000545407891
0.000545388446
0.000545368974
0.000545349754
0.000545331057
0.000545313145
0.000545296256
0.000545280598
0.000545266334
0.000545253589
0.000545242433
0.000545232899
0.000545224973
0.000545218611
0.000545213731
0.000545210233
0.000545208
0.000545206902
0.000545206806
0.000545207581
0.000545209096
0.000545211228
0.000545213866
0.000545216904
0.000545220249
0.000545223819
0.000545227544
0.000545231362
0.00054523522
0.000545239077
0.000545242896
0.000545246648
0.000545250314
0.000545253873
0.000545257313
0.000545260627
0.000545263806
0.000545266845
0.000545269696
0.000545270555
0.000545270448
0.000545270515
0.000545270729
0.000545271074
0.000545271531
0.000545272088
0.000545272727
0.000545273442
0.000545274217
0.000545275045
0.000545275916
0.000545276824
0.000545277761
0.00054527872
0.000545279699
0.000545280689
0.000545281687
0.000545282692
0.000545283697
0.000545284699
0.000545285699
0.000545286691
0.000545287675
0.000545288648
0.000545289611
0.00054529056
0.000545291496
0.000545292416
0.000545293321
0.000545294209
0.000545295081
0.000545295935
0.000545296771
0.000545297591
0.000545298392
0.000545299174
0.000545299939
0.000545300686
0.000545301414
0.000545302125
0.000545302817
0.000545303492
0.000545304148
0.000545304788
0.000545305411
0.000545306015
0.000545306604
0.000545307176
0.000545307731
0.00054530827
0.000545308802
0.00054530928
0.000545318777
0.000545312147
0.000545314828
0.000545312249
0.000545313755
0.000545319328
0.000545314877
0.000545305137
0.000545296378
0.000545289734
0.000545285909
0.000545285219
0.000545287651
0.000545292906
0.000545300507
0.000545309883
0.00054532039
0.000545331241
0.000545341449
0.00054534988
0.000545355442
0.000545355676
0.000545355498
0.00054535027
0.000545342733
0.000545334259
0.000545326273
0.000545320011
0.000545316354
0.000545315773
0.000545318345
0.000545323832
0.000545331762
0.000545341491
0.000545352242
0.00054536312
0.000545373136
0.000545381274
0.00054538662
0.000545388531
0.000545386812
0.000545381816
0.000545374436
0.000545365968
0.000545357851
0.000545351347
0.000545347276
0.000545345869
0.000545346795
0.00054534934
0.000545352663
0.000545356044
0.000545359042
0.000545361525
0.000545363595
0.000545365469
0.000545367366