/*--------------------------------*- C++ -*----------------------------------*\
| =========                 |                                                 |
| \\      /  F ield         | OpenFOAM: The Open Source CFD Toolbox           |
|  \\    /   O peration     | Version:  v2012                                 |
|   \\  /    A nd           | Website:  www.openfoam.com                      |
|    \\/     M anipulation  |                                                 |
\*---------------------------------------------------------------------------*/
FoamFile
{
    version     2.0;
    format      ascii;
    class       surfaceVectorField;
    location    "2.64";
    object      Uf;
}
// * * * * * * * * * * * * * * * * * * * * * * * * * * * * * * * * * * * * * //

dimensions      [0 1 -1 0 0 0 0];


internalField   nonuniform List<vector> 
56481
(
(0.100006998 -1.33787479e-05 0)
(0.100001892 -1.59779991e-05 0)
(0.100020699 -1.51365407e-05 0)
(0.100013017 -3.16648082e-05 0)
(0.100035019 -3.29619292e-06 0)
(0.100030004 -2.7729969e-05 0)
(0.100044391 2.13810987e-05 0)
(0.100046485 -3.38443317e-06 0)
(0.10004686 5.54315122e-05 0)
(0.100056504 3.6405363e-05 0)
(0.100037503 9.42288274e-05 0)
(0.100055633 8.80621714e-05 0)
(0.100014867 0.000133597533 0)
(0.100040834 0.000143654976 0)
(0.0999793185 0.000169582672 0)
(0.100011369 0.000197059119 0)
(0.0999326208 0.000198717189 0)
(0.0999683818 0.000242971514 0)
(0.0998774849 0.000218422451 0)
(0.0999143842 0.000277298583 0)
(0.0998171356 0.000227318676 0)
(0.0998527448 0.000297491898 0)
(0.0997549274 0.000225293651 0)
(0.0997871688 0.000302720837 0)
(0.0996940491 0.000213249027 0)
(0.0997213035 0.000293682923 0)
(0.0996373512 0.000192697703 0)
(0.0996585021 0.000272066686 0)
(0.0995872668 0.000165539798 0)
(0.0996017169 0.000240050073 0)
(0.0995457146 0.000134194719 0)
(0.0995534397 0.000200272307 0)
(0.0995138743 0.000101910308 0)
(0.0995155452 0.000156295384 0)
(0.0994918545 7.28288398e-05 0)
(0.0994889549 0.000113048957 0)
(0.0994784126 5.14838421e-05 0)
(0.0994732185 7.66324365e-05 0)
(0.0994709053 4.17991603e-05 0)
(0.0994662566 5.3237505e-05 0)
(0.0994655484 4.60510029e-05 0)
(0.0994644481 4.75666328e-05 0)
(0.0994579143 6.42684274e-05 0)
(0.099463083 6.14575696e-05 0)
(0.0994437435 9.42304509e-05 0)
(0.099457133 9.33506951e-05 0)
(0.0994199748 0.00013195329 0)
(0.0994422601 0.000138772632 0)
(0.0993851172 0.000172518026 0)
(0.0994156103 0.00019136313 0)
(0.0993392084 0.00021099369 0)
(0.0993760921 0.000244201814 0)
(0.0992836352 0.000243148252 0)
(0.0993243461 0.000291027907 0)
(0.0992207509 0.00026584893 0)
(0.0992624689 0.000326996513 0)
(0.0991534297 0.000277225209 0)
(0.099193511 0.000349000444 0)
(0.0990846787 0.000276674188 0)
(0.099120945 0.000355669858 0)
(0.0990173681 0.000264772095 0)
(0.0990482617 0.000347184243 0)
(0.0989540662 0.000243149927 0)
(0.0989787101 0.000325033807 0)
(0.0988969245 0.000214372522 0)
(0.0989151242 0.000291832069 0)
(0.0988475565 0.000181808776 0)
(0.098859791 0.000251209287 0)
(0.0988068731 0.000149452228 0)
(0.098814289 0.000207709834 0)
(0.0987748767 0.000121630082 0)
(0.0987792453 0.000166612795 0)
(0.0987504665 0.000102531275 0)
(0.0987540927 0.000133533829 0)
(0.0987313503 9.56058918e-05 0)
(0.0987369327 0.000113718518 0)
(0.0987142199 0.000102963645 0)
(0.0987245855 0.000111144281 0)
(0.0986953144 0.000124867247 0)
(0.0987129444 0.00012758274 0)
(0.0986711819 0.000159466439 0)
(0.098697647 0.000161969352 0)
(0.0986393023 0.000202977707 0)
(0.0986748897 0.000210408454 0)
(0.0985984411 0.000250393536 0)
(0.0986421272 0.000266873663 0)
(0.0985487351 0.000296557064 0)
(0.0985984763 0.00032446275 0)
(0.098491503 0.000337272199 0)
(0.098544743 0.00037690789 0)
(0.0984288146 0.000370106052 0)
(0.0984830657 0.000419896203 0)
(0.0983629402 0.000394652013 0)
(0.0984162731 0.000451784344 0)
(0.09829584 0.000412214946 0)
(0.0983471562 0.000473512462 0)
(0.098228831 0.000425082584 0)
(0.0982778712 0.000487818498 0)
(0.0981624948 0.000435675266 0)
(0.0982096269 0.000498093224 0)
(0.098096803 0.000445868388 0)
(0.0981426995 0.000507304222 0)
(0.0980313711 0.000456667832 0)
(0.0980766996 0.000517326163 0)
(0.0979657243 0.000468251815 0)
(0.0980109444 0.000528801824 0)
(0.0978994893 0.000480254343 0)
(0.0979447844 0.000541433273 0)
(0.0978324751 0.000492110599 0)
(0.0978777939 0.00055446702 0)
(0.0977646571 0.000503317856 0)
(0.0978098075 0.000567132221 0)
(0.0976961132 0.000513549237 0)
(0.0977408533 0.000578887997 0)
(0.0976269562 0.000522639832 0)
(0.09767105 0.000589463363 0)
(0.0975572916 0.00053050906 0)
(0.0976005259 0.000598764286 0)
(0.0974872069 0.000537082745 0)
(0.0975293821 0.000606747487 0)
(0.0974167816 0.000542250102 0)
(0.0974576951 0.000613331761 0)
(0.097346104 0.000545858936 0)
(0.0973855386 0.000618369026 0)
(0.097275285 0.000547733378 0)
(0.0973130055 0.000621659865 0)
(0.0972044642 0.000547695563 0)
(0.0972402215 0.000622985047 0)
(0.0971338122 0.000545579663 0)
(0.0971673475 0.00062213068 0)
(0.0970635304 0.000541236757 0)
(0.0970945788 0.000618899926 0)
(0.0969938485 0.000534535095 0)
(0.0970221432 0.000613116115 0)
(0.0969250241 0.000525359634 0)
(0.0969502992 0.000604620891 0)
(0.0968573423 0.000513612388 0)
(0.0968793358 0.00059327284 0)
(0.0967911166 0.000499213867 0)
(0.0968095717 0.000578948522 0)
(0.0967266884 0.000482105259 0)
(0.0967413556 0.000561545042 0)
(0.0966644262 0.000462250752 0)
(0.0966750657 0.000540982876 0)
(0.0966047256 0.000439639593 0)
(0.0966111085 0.000517208163 0)
(0.0965480087 0.000414287643 0)
(0.0965499176 0.000490194147 0)
(0.0964947251 0.000386237958 0)
(0.0964919537 0.000459941721 0)
(0.0964453526 0.000355560017 0)
(0.0964377035 0.000426479005 0)
(0.0964003981 0.000322347176 0)
(0.0963876797 0.000389860423 0)
(0.096360399 0.000286711312 0)
(0.0963424205 0.00035016409 0)
(0.0963259255 0.0002487737 0)
(0.0963024889 0.000307486578 0)
(0.0962975938 0.000208649787 0)
(0.096268472 0.000261932546 0)
(0.0962760405 0.00016642698 0)
(0.0962409647 0.000213596409 0)
(0.0962617279 0.000122173933 0)
(0.096220509 0.000162554597 0)
(0.0962549295 7.59905209e-05 0)
(0.0962075643 0.000108965868 0)
(0.0962556284 2.81739255e-05 0)
(0.0962025227 5.31730878e-05 0)
(0.096262981 -2.03399052e-05 0)
(0.0962055327 -4.09205688e-06 0)
(0.0962808384 -6.91626824e-05 0)
(0.0962174406 -6.32938869e-05 0)
(0.0963087256 -0.000118748852 0)
(0.096239432 -0.000123133425 0)
(0.0963467556 -0.000169108575 0)
(0.0962717874 -0.000184108479 0)
(0.0963950024 -0.000219952931 0)
(0.0963145584 -0.00024586017 0)
(0.0964535214 -0.000270956123 0)
(0.0963679119 -0.000308016335 0)
(0.0965223097 -0.000321760695 0)
(0.09643195 -0.000370166818 0)
(0.0966012767 -0.000371967132 0)
(0.0965066534 -0.000431830583 0)
(0.0966902348 -0.000421150231 0)
(0.0965919063 -0.000492483941 0)
(0.0967888906 -0.000468867196 0)
(0.0966874888 -0.000551576489 0)
(0.0968968401 -0.000514660108 0)
(0.096793061 -0.000608536296 0)
(0.0970135694 -0.000558062829 0)
(0.096908161 -0.000662779986 0)
(0.0971384596 -0.000598612874 0)
(0.0970322086 -0.000713727201 0)
(0.0972707948 -0.000635866238 0)
(0.0971645108 -0.000760816824 0)
(0.097409771 -0.000669413521 0)
(0.0973042692 -0.000803524351 0)
(0.0975545065 -0.000698895389 0)
(0.0974505901 -0.00084137926 0)
(0.0977040536 -0.000724015355 0)
(0.0976024969 -0.000873980687 0)
(0.0978574117 -0.000744548796 0)
(0.0977589442 -0.000901010123 0)
(0.0980135425 -0.000760348165 0)
(0.0979188345 -0.00092224056 0)
(0.0981713873 -0.000771344819 0)
(0.0980810376 -0.000937541933 0)
(0.0983298855 -0.000777548197 0)
(0.0982444108 -0.000946882992 0)
(0.0984879933 -0.000779042908 0)
(0.0984078213 -0.000950329864 0)
(0.0986447026 -0.000775984087 0)
(0.0985701669 -0.000948041649 0)
(0.0987990574 -0.000768591143 0)
(0.0987303961 -0.000940263314 0)
(0.0989501686 -0.000757140051 0)
(0.0988875256 -0.00092731628 0)
(0.0990972261 -0.000741954375 0)
(0.0990406552 -0.000909587124 0)
(0.0992395077 -0.000723395346 0)
(0.0991889787 -0.000887514923 0)
(0.0993763849 -0.000701851465 0)
(0.0993317922 -0.000861577859 0)
(0.0995073268 -0.000677728053 0)
(0.0994684984 -0.000832279678 0)
(0.0996319001 -0.00065143718 0)
(0.0995986082 -0.000800136541 0)
(0.0997497678 -0.00062338841 0)
(0.0997217393 -0.000765664777 0)
(0.0998606852 -0.000593980528 0)
(0.0998376123 -0.000729369906 0)
(0.0999644946 -0.000563594484 0)
(0.0999460452 -0.00069173711 0)
(0.100061118 -0.000532587545 0)
(0.100046946 -0.000653223447 0)
(0.100150551 -0.000501288193 0)
(0.100140302 -0.000614251497 0)
(0.100232851 -0.000469992069 0)
(0.100226176 -0.00057520441 0)
(0.100308136 -0.000438959737 0)
(0.10030469 -0.000536422861 0)
(0.10037657 -0.00040841623 0)
(0.100376024 -0.000498203804 0)
(0.100438361 -0.000378551855 0)
(0.100440401 -0.000460799924 0)
(0.100493747 -0.000349523696 0)
(0.100498082 -0.000424418975 0)
(0.100542988 -0.000321454666 0)
(0.100549355 -0.000389225161 0)
(0.100586361 -0.000294427888 0)
(0.100594528 -0.000355341519 0)
(0.100624168 -0.000268485841 0)
(0.100633929 -0.00032285253 0)
(0.100656744 -0.000243643358 0)
(0.100667903 -0.000291812018 0)
(0.100684453 -0.000219905668 0)
(0.100696818 -0.000262250576 0)
(0.100707663 -0.000197274443 0)
(0.10072105 -0.000234179169 0)
(0.100726731 -0.000175739497 0)
(0.100740977 -0.000207586914 0)
(0.100742 -0.000155275562 0)
(0.100756964 -0.000182443832 0)
(0.100753816 -0.000135851851 0)
(0.100769355 -0.000158716872 0)
(0.10076252 -0.00011743957 0)
(0.100778491 -0.000136367605 0)
(0.100768441 -0.000100011804 0)
(0.100784707 -0.000115355236 0)
(0.1007719 -8.35420605e-05 0)
(0.100788328 -9.56461401e-05 0)
(0.100773214 -6.80091023e-05 0)
(0.100789663 -7.72138307e-05 0)
(0.100772691 -5.34098817e-05 0)
(0.100789004 -6.0037144e-05 0)
(0.100770625 -3.97731003e-05 0)
(0.100786619 -4.41080006e-05 0)
(0.100767277 -2.71676153e-05 0)
(0.100782741 -2.94419723e-05 0)
(0.100762841 -1.57179751e-05 0)
(0.100777543 -1.60583239e-05 0)
(0.100757396 -5.57759417e-06 0)
(0.100771182 -3.99911298e-06 0)
(0.1007507 3.26832385e-06 0)
(0.100763799 6.9013836e-06 0)
(0.100742781 1.10363603e-05 0)
(0.100755371 1.6490911e-05 0)
(0.100733764 1.79168279e-05 0)
(0.100745876 2.49660575e-05 0)
(0.100723794 2.4008539e-05 0)
(0.100735459 3.24634027e-05 0)
(0.100713006 2.93869961e-05 0)
(0.100724279 3.90661339e-05 0)
(0.100701519 3.41290281e-05 0)
(0.100712437 4.48641297e-05 0)
(0.100689443 3.83038411e-05 0)
(0.100700021 4.99429183e-05 0)
(0.100676879 4.19702462e-05 0)
(0.100687129 5.43750738e-05 0)
(0.100663922 4.51795932e-05 0)
(0.100673856 5.8223855e-05 0)
(0.100650658 4.79773577e-05 0)
(0.100660283 6.15460211e-05 0)
(0.100637165 5.04034366e-05 0)
(0.100646488 6.43923505e-05 0)
(0.100623515 5.2492313e-05 0)
(0.100632538 6.68079742e-05 0)
(0.100609772 5.42733665e-05 0)
(0.100618497 6.88327172e-05 0)
(0.100595992 5.57715114e-05 0)
(0.10060442 7.05015318e-05 0)
(0.100582224 5.70081575e-05 0)
(0.100590357 7.18451888e-05 0)
(0.100568512 5.80022519e-05 0)
(0.10057635 7.28910709e-05 0)
(0.100554891 5.87711914e-05 0)
(0.100562437 7.36639043e-05 0)
(0.100541391 5.93314904e-05 0)
(0.10054865 7.41863792e-05 0)
(0.10052804 5.96991561e-05 0)
(0.100535016 7.44796132e-05 0)
(0.100514859 5.98898138e-05 0)
(0.100521558 7.45634336e-05 0)
(0.100501868 5.9918673e-05 0)
(0.100508297 7.44565211e-05 0)
(0.100489084 5.98004189e-05 0)
(0.10049525 7.41764738e-05 0)
(0.100476521 5.95490736e-05 0)
(0.100482432 7.37398234e-05 0)
(0.100464193 5.91778487e-05 0)
(0.100469857 7.31620185e-05 0)
(0.100452113 5.86990053e-05 0)
(0.100457535 7.2457387e-05 0)
(0.100440289 5.81237386e-05 0)
(0.100445478 7.16390949e-05 0)
(0.100428733 5.74621015e-05 0)
(0.100433695 7.07191148e-05 0)
(0.100417453 5.67229777e-05 0)
(0.100422192 6.97082183e-05 0)
(0.100406455 5.59141107e-05 0)
(0.100410976 6.86159981e-05 0)
(0.100395745 5.50421911e-05 0)
(0.100400054 6.74509279e-05 0)
(0.100385329 5.41129889e-05 0)
(0.10038943 6.62204563e-05 0)
(0.10037521 5.31315174e-05 0)
(0.100379106 6.49311268e-05 0)
(0.100365391 5.21022074e-05 0)
(0.100369087 6.35887113e-05 0)
(0.100355874 5.10290681e-05 0)
(0.100359373 6.21983439e-05 0)
(0.10034666 4.99158183e-05 0)
(0.100349966 6.07646368e-05 0)
(0.10033775 4.8765977e-05 0)
(0.100340867 5.9291772e-05 0)
(0.100329145 4.7582905e-05 0)
(0.100332076 5.77835574e-05 0)
(0.100320845 4.63698e-05 0)
(0.100323593 5.62434437e-05 0)
(0.10031285 4.5129642e-05 0)
(0.100315417 5.4674502e-05 0)
(0.100305161 4.38651163e-05 0)
(0.100307551 5.30793453e-05 0)
(0.10029778 4.25783934e-05 0)
(0.100299993 5.14600541e-05 0)
(0.100290708 4.12712798e-05 0)
(0.100292743 4.98177307e-05 0)
(0.100283949 3.99430807e-05 0)
(0.100285811 4.81533187e-05 0)
(0.100277508 3.8598203e-05 0)
(0.100279167 4.64613531e-05 0)
(0.100271391 3.7205736e-05 0)
(0.100272931 4.4755062e-05 0)
(0.100265624 3.58748379e-05 0)
(0.100266708 4.29404711e-05 0)
(0.100260187 3.4037696e-05 0)
(0.10026197 4.13734299e-05 0)
(0.100254002 3.83082546e-05 0)
(0.100006639 -3.18689494e-05 0)
(0.100001816 -2.36229162e-05 0)
(0.100022679 -4.15819328e-05 0)
(0.100013075 -5.01353618e-05 0)
(0.100041781 -2.62055146e-05 0)
(0.100031199 -4.97264624e-05 0)
(0.100058028 1.28803176e-05 0)
(0.100050144 -2.2092209e-05 0)
(0.100064987 7.00554117e-05 0)
(0.100062722 2.83919066e-05 0)
(0.100058886 0.000136952284 0)
(0.100063464 9.50873621e-05 0)
(0.100037328 0.000205209021 0)
(0.100049539 0.000168479621 0)
(0.100000426 0.000267417413 0)
(0.100020117 0.000239551781 0)
(0.0999501735 0.000317664899 0)
(0.0999762614 0.00030083818 0)
(0.0998897412 0.000351896777 0)
(0.0999205535 0.000346887274 0)
(0.0998229298 0.000368104893 0)
(0.0998565162 0.000374426252 0)
(0.0997537287 0.000366248149 0)
(0.0997880684 0.000382406895 0)
(0.0996859687 0.0003477849 0)
(0.0997191124 0.000371709649 0)
(0.0996231127 0.000315039154 0)
(0.0996532712 0.000344446306 0)
(0.0995681672 0.000270893826 0)
(0.0995937633 0.000303320605 0)
(0.099523576 0.000219085453 0)
(0.0995433356 0.000251619711 0)
(0.0994909519 0.000164791408 0)
(0.0995041023 0.000193862542 0)
(0.0994706497 0.000114805012 0)
(0.0994771913 0.000136427318 0)
(0.0994613683 7.67660442e-05 0)
(0.09946228 8.73200406e-05 0)
(0.099460041 5.75219778e-05 0)
(0.0994572684 5.47659513e-05 0)
(0.0994621793 6.12695496e-05 0)
(0.0994583087 4.5104289e-05 0)
(0.0994625413 8.83097592e-05 0)
(0.0994602891 6.10407109e-05 0)
(0.0994559467 0.000134956757 0)
(0.0994577459 0.000100944474 0)
(0.0994382327 0.00019447858 0)
(0.0994459203 0.000159170606 0)
(0.099406948 0.000258606897 0)
(0.0994215495 0.000227387993 0)
(0.0993616175 0.000319158272 0)
(0.0993832417 0.000296400463 0)
(0.099303611 0.000369298767 0)
(0.0993314931 0.00035782333 0)
(0.0992357078 0.000404224912 0)
(0.0992684118 0.000405188015 0)
(0.0991615405 0.000421324248 0)
(0.099197226 0.000434405262 0)
(0.0990850668 0.000419989997 0)
(0.0991217334 0.000443730447 0)
(0.0990101608 0.000401291028 0)
(0.0990458389 0.000433439603 0)
(0.0989403379 0.000367674057 0)
(0.0989732292 0.000405436019 0)
(0.0988785664 0.000322794241 0)
(0.0989071511 0.000362962783 0)
(0.0988270911 0.000271441007 0)
(0.098850235 0.00031048389 0)
(0.0987872023 0.000219432849 0)
(0.0988043046 0.000253642437 0)
(0.0987589786 0.000173314526 0)
(0.0987701296 0.000199112774 0)
(0.0987410823 0.000139702397 0)
(0.0987471688 0.00015414175 0)
(0.098730719 0.000124279474 0)
(0.0987334238 0.000125651938 0)
(0.0987238828 0.000130638889 0)
(0.0987254926 0.000119016235 0)
(0.0987158477 0.00015930891 0)
(0.0987189189 0.000136835278 0)
(0.0987019009 0.000207331369 0)
(0.0987088662 0.000178029376 0)
(0.0986782209 0.000268649629 0)
(0.098690973 0.000237676278 0)
(0.0986426194 0.000335323589 0)
(0.0986621562 0.000307869358 0)
(0.0985948871 0.00039928439 0)
(0.0986211507 0.000379427163 0)
(0.0985366532 0.000454106219 0)
(0.0985686332 0.000443965109 0)
(0.0984708157 0.000496248889 0)
(0.0985068847 0.000495709164 0)
(0.0984007241 0.000525415391 0)
(0.0984390906 0.000532495781 0)
(0.0983293659 0.000543986053 0)
(0.0983684982 0.000555682515 0)
(0.0982587892 0.000555810681 0)
(0.0982976887 0.000569088678 0)
(0.0981898974 0.000564834642 0)
(0.0982281637 0.000577423093 0)
(0.0981226057 0.000574029008 0)
(0.0981603176 0.000584791721 0)
(0.0980562263 0.000584905811 0)
(0.098093723 0.000593762952 0)
(0.0979899024 0.000597628786 0)
(0.0980275626 0.000605174811 0)
(0.0979229327 0.000611507413 0)
(0.0979610262 0.000618549866 0)
(0.0978549185 0.000625576235 0)
(0.0978935521 0.00063278647 0)
(0.0977857477 0.000639020445 0)
(0.0978248887 0.000646783417 0)
(0.0977154899 0.000651349788 0)
(0.0977550232 0.000659790852 0)
(0.0976442801 0.000662359438 0)
(0.0976840628 0.00067146261 0)
(0.0975722423 0.0006719884 0)
(0.0976121344 0.000681716907 0)
(0.0974994669 0.000680182491 0)
(0.0975393366 0.000690549426 0)
(0.0974260247 0.000686819626 0)
(0.0974657388 0.00069790157 0)
(0.097351994 0.00069170099 0)
(0.0973914057 0.000703616484 0)
(0.0972774828 0.000694580257 0)
(0.097316424 0.000707460561 0)
(0.0972026376 0.000695199567 0)
(0.0972409185 0.00070917045 0)
(0.0971276426 0.000693314251 0)
(0.097165057 0.000708488544 0)
(0.09705272 0.000688702454 0)
(0.0970890488 0.000705174443 0)
(0.0969781262 0.000681164647 0)
(0.09701314 0.000699011963 0)
(0.0969041506 0.000670520911 0)
(0.0969376113 0.000689804956 0)
(0.0968311146 0.000656610485 0)
(0.0968627768 0.000677374839 0)
(0.0967593719 0.000639293778 0)
(0.0967889839 0.000661561365 0)
(0.0966893073 0.000618455352 0)
(0.0967166122 0.000642225473 0)
(0.0966213362 0.000594006534 0)
(0.0966460729 0.000619252668 0)
(0.0965559027 0.00056588696 0)
(0.0965778069 0.000592555725 0)
(0.0964934787 0.000534065 0)
(0.0965122832 0.000562076349 0)
(0.0964345614 0.00049853715 0)
(0.0964499974 0.000527785874 0)
(0.0963796719 0.00045932659 0)
(0.0963914698 0.000489685095 0)
(0.0963293531 0.000416480944 0)
(0.0963372441 0.000447803332 0)
(0.0962841669 0.000370068754 0)
(0.0962878848 0.000402196669 0)
(0.096244689 0.000320173885 0)
(0.0962439741 0.000352945909 0)
(0.0962114918 0.00026688509 0)
(0.0962061059 0.000300159644 0)
(0.096185116 0.000210288276 0)
(0.0961748732 0.000243968554 0)
(0.096166083 0.000150499448 0)
(0.0961508543 0.000184471405 0)
(0.0961549499 8.77187956e-05 0)
(0.0961345998 0.00012178576 0)
(0.0961524244 2.22562625e-05 0)
(0.096126602 5.60812649e-05 0)
(0.0961594317 -4.51526978e-05 0)
(0.0961274495 -1.21610853e-05 0)
(0.0961757195 -0.000113967648 0)
(0.0961377339 -8.20495588e-05 0)
(0.0962022437 -0.000184164566 0)
(0.0961580572 -0.000153676416 0)
(0.0962392998 -0.000255502888 0)
(0.0961889776 -0.0002267791 0)
(0.0962871838 -0.000327542846 0)
(0.0962308046 -0.000300999385 0)
(0.0963460731 -0.000399801521 0)
(0.0962837747 -0.000375828264 0)
(0.096416033 -0.00047174896 0)
(0.0963480529 -0.000450726682 0)
(0.0964970311 -0.0005427944 0)
(0.0964236916 -0.000525101045 0)
(0.0965889225 -0.000612301229 0)
(0.0965106266 -0.000598298255 0)
(0.0966914381 -0.000679603191 0)
(0.096608673 -0.000669624784 0)
(0.0968041803 -0.000744017854 0)
(0.0967175125 -0.000738360626 0)
(0.0969266218 -0.000804862797 0)
(0.0968366886 -0.000803773215 0)
(0.097058108 -0.00086147389 0)
(0.0969656063 -0.00086513562 0)
(0.0971978631 -0.000913223751 0)
(0.0971035351 -0.000921746857 0)
(0.0973449984 -0.000959539819 0)
(0.0972496158 -0.000972952838 0)
(0.0974985247 -0.000999921538 0)
(0.0974028712 -0.00101816709 0)
(0.0976573669 -0.0010339556 0)
(0.0975622204 -0.00105688989 0)
(0.097820382 -0.00106132841 0)
(0.0977264972 -0.00108872444 0)
(0.0979863795 -0.00108183529 0)
(0.0978944721 -0.00111338918 0)
(0.0981541444 -0.00109538582 0)
(0.0980648761 -0.00113072577 0)
(0.0983224611 -0.00110200507 0)
(0.0982364273 -0.00114070224 0)
(0.0984901374 -0.0011018307 0)
(0.0984078573 -0.00114341168 0)
(0.0986560274 -0.00109510636 0)
(0.0985779368 -0.00113906643 0)
(0.0988190518 -0.00108217157 0)
(0.0987454993 -0.0011279884 0)
(0.098978216 -0.00106344911 0)
(0.0989094618 -0.00111059621 0)
(0.0991326236 -0.00103943042 0)
(0.0990688417 -0.00108738975 0)
(0.0992814868 -0.00101065982 0)
(0.0992227693 -0.00105893318 0)
(0.099424133 -0.000977718425 0)
(0.0993704967 -0.00102583709 0)
(0.0995600071 -0.000941208336 0)
(0.0995114015 -0.000988740781 0)
(0.0996886713 -0.000901737633 0)
(0.0996449875 -0.000948295279 0)
(0.0998098013 -0.000859906827 0)
(0.0997708817 -0.000905147793 0)
(0.0999231807 -0.00081629693 0)
(0.0998888286 -0.000859927972 0)
(0.100028693 -0.000771459444 0)
(0.0999986818 -0.000813236242 0)
(0.100126313 -0.000725908338 0)
(0.100100394 -0.000765634478 0)
(0.100216097 -0.000680113635 0)
(0.100194008 -0.000717638738 0)
(0.100298171 -0.000634496855 0)
(0.100279641 -0.000669713741 0)
(0.100372722 -0.000589428658 0)
(0.100357479 -0.000622269507 0)
(0.100439987 -0.000545228034 0)
(0.100427762 -0.000575660266 0)
(0.100500242 -0.000502162584 0)
(0.100490776 -0.000530185095 0)
(0.100553799 -0.000460449749 0)
(0.10054684 -0.000486089999 0)
(0.100600993 -0.000420257567 0)
(0.100596302 -0.000443570664 0)
(0.100642185 -0.000381703644 0)
(0.10063953 -0.000402774379 0)
(0.100677746 -0.000344857532 0)
(0.100676905 -0.000363801284 0)
(0.100708052 -0.000309751831 0)
(0.100708819 -0.000326710443 0)
(0.100733483 -0.000276396174 0)
(0.100735664 -0.000291534543 0)
(0.100754428 -0.000244787816 0)
(0.100757833 -0.000258296942 0)
(0.100771268 -0.000214917857 0)
(0.100775711 -0.000226979075 0)
(0.100784364 -0.000186766444 0)
(0.100789674 -0.000197523637 0)
(0.100794062 -0.000160296935 0)
(0.100800087 -0.000169884522 0)
(0.100800701 -0.00013546328 0)
(0.100807301 -0.000144012579 0)
(0.100804611 -0.00011222587 0)
(0.100811644 -0.000119857503 0)
(0.100806107 -9.05558852e-05 0)
(0.100813429 -9.73689078e-05 0)
(0.100805473 -7.04257743e-05 0)
(0.100812964 -7.64838986e-05 0)
(0.100802958 -5.18078768e-05 0)
(0.100810539 -5.71403846e-05 0)
(0.100798762 -3.46822818e-05 0)
(0.100806413 -3.92767008e-05 0)
(0.100793044 -1.90181354e-05 0)
(0.100800834 -2.28578566e-05 0)
(0.100785936 -4.73740736e-06 0)
(0.100794028 -7.87313328e-06 0)
(0.100777656 8.14898807e-06 0)
(0.100786052 5.53524222e-06 0)
(0.100768479 1.95800435e-05 0)
(0.100776986 1.7468775e-05 0)
(0.100758415 2.96659426e-05 0)
(0.100767004 2.80804098e-05 0)
(0.100747544 3.85884616e-05 0)
(0.100756166 3.74836347e-05 0)
(0.10073595 4.64644044e-05 0)
(0.10074454 4.58143055e-05 0)
(0.100723717 5.33792549e-05 0)
(0.100732251 5.31522555e-05 0)
(0.100710939 5.94237358e-05 0)
(0.100719404 5.95780145e-05 0)
(0.100697708 6.46851334e-05 0)
(0.100706084 6.51788832e-05 0)
(0.100684109 6.92396308e-05 0)
(0.100692377 7.00344955e-05 0)
(0.100670222 7.31545426e-05 0)
(0.100678366 7.4215394e-05 0)
(0.100656119 7.64906538e-05 0)
(0.100664125 7.77856223e-05 0)
(0.100641867 7.93028842e-05 0)
(0.100649726 8.08033123e-05 0)
(0.100627527 8.16406536e-05 0)
(0.100635229 8.33207745e-05 0)
(0.100613153 8.35482472e-05 0)
(0.100620691 8.53847688e-05 0)
(0.100598793 8.50652783e-05 0)
(0.100606164 8.70369231e-05 0)
(0.100584491 8.62272671e-05 0)
(0.100591692 8.83143877e-05 0)
(0.100570284 8.70662045e-05 0)
(0.100577313 8.92505689e-05 0)
(0.100556206 8.76110515e-05 0)
(0.100563061 8.98757694e-05 0)
(0.100542284 8.7888198e-05 0)
(0.100548965 9.02177239e-05 0)
(0.100528543 8.7921853e-05 0)
(0.10053505 9.03020344e-05 0)
(0.100515005 8.77343456e-05 0)
(0.100521338 9.01524731e-05 0)
(0.100501688 8.73463448e-05 0)
(0.100507845 8.97911645e-05 0)
(0.100488608 8.67770166e-05 0)
(0.100494589 8.92386908e-05 0)
(0.100475778 8.60441303e-05 0)
(0.100481583 8.8514155e-05 0)
(0.100463209 8.51641208e-05 0)
(0.100468838 8.76352123e-05 0)
(0.100450911 8.41521239e-05 0)
(0.100456365 8.66180862e-05 0)
(0.100438894 8.30219992e-05 0)
(0.100444172 8.54775818e-05 0)
(0.100427163 8.17863562e-05 0)
(0.100432266 8.42271103e-05 0)
(0.100415725 8.04565888e-05 0)
(0.100420655 8.28787304e-05 0)
(0.100404586 7.90429258e-05 0)
(0.100409343 8.14432099e-05 0)
(0.100393749 7.75545017e-05 0)
(0.100398334 7.993011e-05 0)
(0.100383217 7.599944e-05 0)
(0.100387633 7.83478878e-05 0)
(0.100372993 7.43849484e-05 0)
(0.100377241 7.67040117e-05 0)
(0.100363079 7.2717419e-05 0)
(0.100367161 7.50050822e-05 0)
(0.100353476 7.10025225e-05 0)
(0.100357393 7.32569487e-05 0)
(0.100344183 6.92452889e-05 0)
(0.100347937 7.14648103e-05 0)
(0.100335203 6.74501725e-05 0)
(0.100338794 6.96332956e-05 0)
(0.100326533 6.56210865e-05 0)
(0.100329964 6.77665128e-05 0)
(0.100318175 6.376141e-05 0)
(0.100321446 6.58680674e-05 0)
(0.100310128 6.18739488e-05 0)
(0.100313239 6.39410465e-05 0)
(0.100302391 5.99608817e-05 0)
(0.100305343 6.19879497e-05 0)
(0.100294966 5.80234946e-05 0)
(0.100297757 6.00106621e-05 0)
(0.100287851 5.60625144e-05 0)
(0.10029048 5.80099753e-05 0)
(0.100281048 5.40749889e-05 0)
(0.10028352 5.59869874e-05 0)
(0.100274558 5.20664148e-05 0)
(0.100276843 5.39354453e-05 0)
(0.100268373 4.99912011e-05 0)
(0.100270569 5.18764231e-05 0)
(0.100262502 4.80169991e-05 0)
(0.10026429 4.97009923e-05 0)
(0.100256846 4.53458426e-05 0)
(0.100259502 4.78872283e-05 0)
(0.100251396 4.43616684e-05 0)
(0.10000672 -4.30004603e-05 0)
(0.100001899 -3.13609143e-05 0)
(0.100021932 -5.94886496e-05 0)
(0.100013558 -6.76519399e-05 0)
(0.100039794 -4.6555733e-05 0)
(0.100032231 -7.02951987e-05 0)
(0.100054797 -6.31333849e-06 0)
(0.100051636 -3.93683762e-05 0)
(0.100060872 5.54387808e-05 0)
(0.100064594 2.13959322e-05 0)
(0.100054039 0.000130003309 0)
(0.100065786 0.000102955788 0)
(0.100032353 0.000207408496 0)
(0.100052176 0.000193451121 0)
(0.099995953 0.000278554709 0)
(0.100022782 0.00028146754 0)
(0.0999466567 0.000336402184 0)
(0.0999786149 0.000357603605 0)
(0.0998874069 0.000376261769 0)
(0.0999222207 0.000415114304 0)
(0.0998217879 0.000395817684 0)
(0.09985713 0.000449987528 0)
(0.0997536159 0.000394955171 0)
(0.099787336 0.000460907925 0)
(0.0996866037 0.000375228692 0)
(0.0997168715 0.000448875281 0)
(0.0996241393 0.000339154772 0)
(0.0996495246 0.000416374934 0)
(0.0995691776 0.000289869918 0)
(0.0995886846 0.00036660988 0)
(0.0995241302 0.00023148065 0)
(0.0995372456 0.000303492527 0)
(0.0994906227 0.000169761399 0)
(0.0994974254 0.000232446901 0)
(0.0994691036 0.000112384899 0)
(0.0994704016 0.000161206934 0)
(0.0994584549 6.80690509e-05 0)
(0.0994558457 9.95821214e-05 0)
(0.0994558084 4.47225225e-05 0)
(0.0994515926 5.78134128e-05 0)
(0.0994566944 4.73522818e-05 0)
(0.0994536945 4.4084108e-05 0)
(0.0994557724 7.66691692e-05 0)
(0.0994569625 6.21024416e-05 0)
(0.0994480225 0.000128861713 0)
(0.0994558379 0.000109868594 0)
(0.0994295796 0.000196498933 0)
(0.0994453797 0.000180407808 0)
(0.0993982175 0.000270207144 0)
(0.0994221131 0.000263501986 0)
(0.0993535158 0.000340529904 0)
(0.0993844862 0.000347875141 0)
(0.099296725 0.000399427971 0)
(0.0993329114 0.000423218768 0)
(0.0992304002 0.000441152032 0)
(0.0992694812 0.000481562001 0)
(0.0991579233 0.000462501322 0)
(0.0991974775 0.000517863547 0)
(0.0990830361 0.000462641376 0)
(0.0991208229 0.000529964244 0)
(0.0990094587 0.000442711955 0)
(0.099043605 0.000518165019 0)
(0.0989406092 0.000405443616 0)
(0.0989697258 0.000484717287 0)
(0.0988793948 0.000354921125 0)
(0.0989026503 0.000433452149 0)
(0.098828026 0.000296493605 0)
(0.0988451999 0.000369635858 0)
(0.0987878051 0.000236687114 0)
(0.0987993321 0.000299957415 0)
(0.0987588898 0.000182903221 0)
(0.0987658782 0.000232409111 0)
(0.0987400874 0.000142718365 0)
(0.0987442813 0.000175793033 0)
(0.0987287745 0.000122755485 0)
(0.0987324503 0.000138678861 0)
(0.0987210907 0.000127357893 0)
(0.0987268559 0.000127864318 0)
(0.0987124816 0.000157447979 0)
(0.0987229189 0.000146748789 0)
(0.098698464 0.000209959299 0)
(0.0987156635 0.000194170837 0)
(0.0986754064 0.000278159172 0)
(0.0987005463 0.000264227484 0)
(0.0986411461 0.000352943049 0)
(0.0986742773 0.000347320531 0)
(0.0985953083 0.000424827964 0)
(0.0986354064 0.000432210138 0)
(0.0985392254 0.000486074743 0)
(0.0985844893 0.000508545478 0)
(0.0984754665 0.000532275265 0)
(0.0985237702 0.000569128478 0)
(0.0984071147 0.00056291343 0)
(0.0984564778 0.000611203883 0)
(0.0983370119 0.000580783307 0)
(0.0983859628 0.000636406931 0)
(0.0982671936 0.000590563567 0)
(0.0983149406 0.000649485503 0)
(0.098198653 0.000597125037 0)
(0.0982450444 0.000656348684 0)
(0.0981314429 0.000604172909 0)
(0.0981767705 0.000662185194 0)
(0.0980650071 0.000613604004 0)
(0.0981097478 0.000670264788 0)
(0.0979985757 0.00062561803 0)
(0.0980431676 0.00068167152 0)
(0.0979314788 0.000639329283 0)
(0.0979761901 0.000695813029 0)
(0.0978633024 0.000653502776 0)
(0.097908204 0.000711292563 0)
(0.0977938949 0.000667104004 0)
(0.0978389028 0.000726707189 0)
(0.0977232819 0.000679528306 0)
(0.0977682265 0.00074110282 0)
(0.0976515631 0.000690553071 0)
(0.0976962466 0.000754047942 0)
(0.0975788401 0.000700153051 0)
(0.0976230653 0.000765458516 0)
(0.0975051909 0.000708318508 0)
(0.097548765 0.000775357595 0)
(0.0974306791 0.000714953612 0)
(0.0974734034 0.00078370308 0)
(0.0973553775 0.000719861694 0)
(0.097397037 0.000790327405 0)
(0.0972793893 0.000722781679 0)
(0.0973197467 0.000794962138 0)
(0.0972028606 0.000723434327 0)
(0.0972416558 0.000797294423 0)
(0.0971259837 0.000721553863 0)
(0.0971629356 0.000797013422 0)
(0.0970489914 0.000716899734 0)
(0.0970838045 0.000793832291 0)
(0.0969721535 0.000709255057 0)
(0.0970045219 0.000787491905 0)
(0.0968957752 0.000698421886 0)
(0.0969253853 0.000777755803 0)
(0.0968201954 0.000684219353 0)
(0.0968467293 0.000764406082 0)
(0.096745787 0.000666485284 0)
(0.0967689246 0.000747243769 0)
(0.0966729553 0.000645079559 0)
(0.0966923773 0.000726092319 0)
(0.0966021364 0.000619887459 0)
(0.0966175275 0.000700801675 0)
(0.0965337956 0.000590822166 0)
(0.0965448468 0.000671251247 0)
(0.0964684251 0.00055782633 0)
(0.0964748367 0.000637351464 0)
(0.0964065429 0.00052087282 0)
(0.096408026 0.000599044144 0)
(0.0963486912 0.000479964845 0)
(0.0963449686 0.000556302168 0)
(0.0962954349 0.000435135514 0)
(0.0962862411 0.000509128787 0)
(0.0962473591 0.000386446982 0)
(0.0962324403 0.000457556751 0)
(0.0962050656 0.000333989436 0)
(0.0961841795 0.000401647425 0)
(0.0961691742 0.000277880973 0)
(0.0961420836 0.000341489179 0)
(0.0961403219 0.000218276988 0)
(0.0961067866 0.000277192365 0)