/*--------------------------------*- C++ -*----------------------------------*\
| =========                 |                                                 |
| \\      /  F ield         | OpenFOAM: The Open Source CFD Toolbox           |
|  \\    /   O peration     | Version:  v2012                                 |
|   \\  /    A nd           | Website:  www.openfoam.com                      |
|    \\/     M anipulation  |                                                 |
\*---------------------------------------------------------------------------*/
FoamFile
{
    version     2.0;
    format      ascii;
    class       surfaceScalarField;
    location    "2.29";
    object      phiHbyA;
}
// * * * * * * * * * * * * * * * * * * * * * * * * * * * * * * * * * * * * * //

dimensions      [0 3 -1 0 0 0 0];
oriented        oriented;


internalField   nonuniform List<scalar> 
56481
(
6.66595398e-07
1.45771e-10
6.66418167e-07
4.11621671e-10
6.66155722e-07
6.38363457e-10
6.65831673e-07
8.06345143e-10
6.65472256e-07
8.98288725e-10
6.6510356e-07
9.08849339e-10
6.64749001e-07
8.4513157e-10
6.64428754e-07
7.18828601e-10
6.64160946e-07
5.39457591e-10
6.63963442e-07
3.15026098e-10
6.63844562e-07
5.37183089e-11
6.6376396e-07
-1.9343049e-10
6.63726492e-07
-4.02078066e-10
6.63723223e-07
-5.24957118e-10
6.63734855e-07
-5.31282706e-10
6.63738562e-07
-4.12638302e-10
6.63717022e-07
-1.85225236e-10
6.63646287e-07
1.23754057e-10
6.63485023e-07
4.71335141e-10
6.63243318e-07
8.0976095e-10
6.62934019e-07
1.11260681e-09
6.62575297e-07
1.35318944e-09
6.6218707e-07
1.51420274e-09
6.61789067e-07
1.58864712e-09
6.6139998e-07
1.57773679e-09
6.61036724e-07
1.48965014e-09
6.60713728e-07
1.33873419e-09
6.60441979e-07
1.14499823e-09
6.60227577e-07
9.33946673e-10
6.60069983e-07
7.36011903e-10
6.59960599e-07
5.84493689e-10
6.59882633e-07
5.11376105e-10
6.59813203e-07
5.4137706e-10
6.59727473e-07
6.85707332e-10
6.59601559e-07
9.37587382e-10
6.59416369e-07
1.27230339e-09
6.59162144e-07
1.65224478e-09
6.58839342e-07
2.03494296e-09
6.5845725e-07
2.38263948e-09
6.58030655e-07
2.67041778e-09
6.575756e-07
2.89022312e-09
6.57105566e-07
3.04967707e-09
6.56629121e-07
3.16654612e-09
6.56149491e-07
3.2612765e-09
6.55665751e-07
3.35046053e-09
6.5517485e-07
3.44329886e-09
6.54673552e-07
3.54155075e-09
6.54159678e-07
3.64197123e-09
6.53632486e-07
3.73951309e-09
6.53092404e-07
3.82979337e-09
6.52540506e-07
3.91015302e-09
6.51978075e-07
3.97948554e-09
6.51406384e-07
4.0374756e-09
6.50826689e-07
4.08387179e-09
6.50240328e-07
4.11811532e-09
6.49648815e-07
4.13932566e-09
6.49053899e-07
4.14647016e-09
6.48457566e-07
4.13854602e-09
6.47862016e-07
4.11468416e-09
6.47269634e-07
4.07417478e-09
6.46682964e-07
4.01645284e-09
6.46104689e-07
3.94108004e-09
6.45537607e-07
3.84773745e-09
6.44984607e-07
3.73623075e-09
6.44448639e-07
3.6064962e-09
6.43932688e-07
3.4586087e-09
6.43439738e-07
3.29278806e-09
6.42972764e-07
3.10939609e-09
6.42534714e-07
2.90894302e-09
6.42128521e-07
2.69208478e-09
6.41757107e-07
2.45961108e-09
6.41423397e-07
2.21243629e-09
6.41130322e-07
1.95157652e-09
6.40880809e-07
1.67811459e-09
6.40677785e-07
1.3931209e-09
6.40524442e-07
1.09739908e-09
6.40422843e-07
7.92799487e-10
6.40373378e-07
4.81147534e-10
6.40374865e-07
1.64486927e-10
6.40434759e-07
-1.57748921e-10
6.40556202e-07
-4.8136068e-10
6.40739481e-07
-8.06211372e-10
6.40984311e-07
-1.1309771e-09
6.41290297e-07
-1.45371892e-09
6.4165689e-07
-1.77264164e-09
6.42083069e-07
-2.0857373e-09
6.42567276e-07
-2.39082234e-09
6.43107422e-07
-2.68565828e-09
6.43700884e-07
-2.96796452e-09
6.44344526e-07
-3.23544195e-09
6.45034745e-07
-3.48582205e-09
6.45767526e-07
-3.71693535e-09
6.46538492e-07
-3.92677411e-09
6.47342952e-07
-4.11356537e-09
6.48175947e-07
-4.27583054e-09
6.49032299e-07
-4.41242276e-09
6.49906669e-07
-4.52256067e-09
6.50793627e-07
-4.60584152e-09
6.51687729e-07
-4.66223465e-09
6.525836e-07
-4.69207915e-09
6.53476018e-07
-4.69606629e-09
6.54359984e-07
-4.67520666e-09
6.55230794e-07
-4.63080566e-09
6.56084088e-07
-4.56441992e-09
6.56915901e-07
-4.47781846e-09
6.57722689e-07
-4.37292735e-09
6.58501354e-07
-4.25179352e-09
6.59249251e-07
-4.11652597e-09
6.59964194e-07
-3.96925915e-09
6.6064444e-07
-3.8121072e-09
6.6128868e-07
-3.6471314e-09
6.61896008e-07
-3.47630224e-09
6.62465892e-07
-3.30147937e-09
6.62998137e-07
-3.12438925e-09
6.63492833e-07
-2.94660004e-09
6.63950277e-07
-2.76950237e-09
6.64371028e-07
-2.59426469e-09
6.64756144e-07
-2.42182021e-09
6.65106905e-07
-2.25300038e-09
6.65424722e-07
-2.08854793e-09
6.65711099e-07
-1.92909909e-09
6.65967599e-07
-1.77518182e-09
6.6619582e-07
-1.62721506e-09
6.66397374e-07
-1.48551521e-09
6.66573865e-07
-1.35029812e-09
6.6672686e-07
-1.22168144e-09
6.66857889e-07
-1.09971675e-09
6.66968487e-07
-9.84423725e-10
6.67060166e-07
-8.75726703e-10
6.67134395e-07
-7.73487206e-10
6.67192592e-07
-6.77525252e-10
6.67236109e-07
-5.87631477e-10
6.67266234e-07
-5.03573952e-10
6.67284197e-07
-4.25101764e-10
6.67291177e-07
-3.51947268e-10
6.67288307e-07
-2.83819794e-10
6.67276693e-07
-2.20395773e-10
6.67257521e-07
-1.61385636e-10
6.67232285e-07
-1.06676816e-10
6.67202964e-07
-5.65142907e-11
6.67172134e-07
-1.19873729e-11
6.67138694e-07
3.040588e-11
6.67096962e-07
6.66798969e-11
6.67049048e-07
9.76385943e-11
6.66996112e-07
1.24794604e-10
6.66939051e-07
1.48938644e-10
6.66878666e-07
1.70555228e-10
6.66815695e-07
1.89936151e-10
6.66750799e-07
2.07283835e-10
6.66684539e-07
2.22778338e-10
6.66617375e-07
2.365651e-10
6.66549675e-07
2.4874695e-10
6.66481722e-07
2.59400494e-10
6.66413732e-07
2.6859474e-10
6.66345873e-07
2.76401146e-10
6.6627828e-07
2.82896261e-10
6.66211073e-07
2.88162481e-10
6.66144363e-07
2.9228734e-10
6.66078255e-07
2.95361052e-10
6.66012854e-07
2.9747414e-10
6.65948261e-07
2.98714348e-10
6.65884574e-07
2.99164774e-10
6.65821887e-07
2.98901727e-10
6.65760286e-07
2.97994482e-10
6.65699848e-07
2.96504161e-10
6.65640641e-07
2.94484622e-10
6.65582725e-07
2.91982882e-10
6.65526145e-07
2.8904041e-10
6.65470942e-07
2.85693729e-10
6.65417146e-07
2.81975985e-10
6.65364777e-07
2.77917912e-10
6.65313854e-07
2.73548188e-10
6.65264388e-07
2.68894431e-10
6.65216388e-07
2.63983481e-10
6.6516986e-07
2.58841061e-10
6.65124811e-07
2.53492088e-10
6.65081246e-07
2.47960433e-10
6.65039172e-07
2.42268258e-10
6.64998595e-07
2.36436182e-10
6.64959523e-07
2.30482783e-10
6.64921962e-07
2.24424697e-10
6.64885922e-07
2.18276053e-10
6.64851412e-07
2.12048921e-10
6.64818443e-07
2.05752069e-10
6.6478703e-07
1.99394182e-10
6.64757193e-07
1.92964787e-10
6.64728956e-07
1.86511586e-10
6.64702412e-07
1.79763797e-10
6.64677486e-07
1.73810209e-10
1.63077612e-10
6.66615537e-07
1.97507686e-10
6.66450911e-07
5.77760714e-10
6.66190428e-07
9.00673286e-10
6.65856931e-07
1.14163729e-09
6.65478093e-07
1.27891964e-09
6.65083393e-07
1.30540479e-09
6.64699934e-07
1.23049232e-09
6.64350856e-07
1.06982032e-09
6.6405578e-07
8.36463699e-10
6.63829861e-07
5.4289597e-10
6.63674198e-07
2.10961965e-10
6.63612831e-07
-1.29095394e-10
6.63631289e-07
-4.18226558e-10
6.63704214e-07
-5.95799695e-10
6.63799775e-07
-6.24885543e-10
6.63880603e-07
-4.91485141e-10
6.63906132e-07
-2.08698309e-10
6.63854432e-07
1.773622e-10
6.63715314e-07
6.11694556e-10
6.63478724e-07
1.047428e-09
6.63155585e-07
1.43673923e-09
6.62765304e-07
1.74433762e-09
6.62332678e-07
1.94760551e-09
6.6188445e-07
2.03759862e-09
6.61446306e-07
2.01656932e-09
6.61041277e-07
1.89534044e-09
6.60688782e-07
1.69186669e-09
6.60403542e-07
1.43084542e-09
6.6019406e-07
1.1439965e-09
6.60060744e-07
8.6984538e-10
6.59994308e-07
6.51394115e-10
6.59975369e-07
5.3073111e-10
6.59975933e-07
5.41190942e-10
6.59962894e-07
6.99105837e-10
6.59903148e-07
9.97694197e-10
6.59769703e-07
1.40612466e-09
6.59547109e-07
1.87523992e-09
6.59233981e-07
2.34850079e-09
6.58841953e-07
2.7751274e-09
6.58391446e-07
3.12141251e-09
6.57905636e-07
3.37654428e-09
6.57404578e-07
3.55126258e-09
6.56901282e-07
3.67038161e-09
6.56400646e-07
3.7624609e-09
6.55901014e-07
3.85064825e-09
6.5539721e-07
3.94766723e-09
6.54883609e-07
4.05572391e-09
6.54356196e-07
4.16996596e-09
6.53813244e-07
4.28305765e-09
6.53254923e-07
4.38871662e-09
6.5268246e-07
4.4832291e-09
6.52097384e-07
4.56518375e-09
6.51501146e-07
4.63434621e-09
6.50895076e-07
4.69058183e-09
6.5028054e-07
4.73329969e-09
6.49659097e-07
4.76142221e-09
6.49032597e-07
4.77362886e-09
6.48403185e-07
4.76861994e-09
6.47773264e-07
4.74526723e-09
6.47145448e-07
4.70264949e-09
6.46522526e-07
4.64002885e-09
6.45907429e-07
4.5568225e-09
6.45303209e-07
4.45259083e-09
6.44713013e-07
4.32704358e-09
6.4414006e-07
4.18004742e-09
6.43587608e-07
4.01163404e-09
6.43058939e-07
3.82200394e-09
6.42557332e-07
3.61151846e-09
6.42086053e-07
3.38070323e-09
6.41648337e-07
3.13024266e-09
6.41247383e-07
2.8609662e-09
6.40886334e-07
2.57384084e-09
6.40568266e-07
2.26995173e-09
6.40296155e-07
1.95047942e-09
6.40072778e-07
1.61669674e-09
6.39900337e-07
1.26997737e-09
6.39781341e-07
9.11856868e-10
6.39718742e-07
5.43726976e-10
6.39717568e-07
1.65612398e-10
6.3977643e-07
-2.16767123e-10
6.39898086e-07
-6.0321733e-10
6.40083588e-07
-9.92012694e-10
6.40333759e-07
-1.38153155e-09
6.40648934e-07
-1.76935525e-09
6.41028747e-07
-2.15300204e-09
6.41472304e-07
-2.52992781e-09
6.41978162e-07
-2.89739926e-09
6.42544271e-07
-3.25257298e-09
6.43167974e-07
-3.5925561e-09
6.43846019e-07
-3.91445699e-09
6.44574595e-07
-4.21544556e-09
6.45349373e-07
-4.49283317e-09
6.46165555e-07
-4.74414201e-09
6.47017929e-07
-4.96718527e-09
6.47900935e-07
-5.16013423e-09
6.48808736e-07
-5.32156415e-09
6.49735301e-07
-5.45050036e-09
6.50674502e-07
-5.54644107e-09
6.51620209e-07
-5.60935542e-09
6.52566396e-07
-5.63968372e-09
6.53507234e-07
-5.63831589e-09
6.54437179e-07
-5.60654885e-09
6.55351052e-07
-5.54605216e-09
6.56244102e-07
-5.45881002e-09
6.57112052e-07
-5.34706873e-09
6.57951135e-07
-5.213265e-09
6.58758118e-07
-5.05997761e-09
6.59530301e-07
-4.88985292e-09
6.60265516e-07
-4.70555767e-09
6.6096211e-07
-4.50972155e-09
6.6161892e-07
-4.30489606e-09
6.62235236e-07
-4.09350765e-09
6.62810767e-07
-3.87783264e-09
6.63345589e-07
-3.65997053e-09
6.63840111e-07
-3.44181731e-09
6.64295029e-07
-3.22505484e-09
6.64711326e-07
-3.01113776e-09
6.65090276e-07
-2.8012894e-09
6.65433357e-07
-2.59654617e-09
6.65742187e-07
-2.3977879e-09
6.66018472e-07
-2.20574239e-09
6.66263977e-07
-2.02099486e-09
6.66480492e-07
-1.84399284e-09
6.66669815e-07
-1.67505786e-09
6.66833728e-07
-1.51439287e-09
6.66973997e-07
-1.36209711e-09
6.6709235e-07
-1.2181832e-09
6.67190438e-07
-1.08258917e-09
6.67269848e-07
-9.55178137e-10
6.67332111e-07
-8.35753318e-10
6.67378694e-07
-7.24073005e-10
6.67411001e-07
-6.19864192e-10
6.67430374e-07
-5.22831488e-10
6.67438095e-07
-4.32666328e-10
6.67435414e-07
-3.49069162e-10
6.67423613e-07
-2.71777345e-10
6.67403966e-07
-2.00444751e-10
6.67377605e-07
-1.34624696e-10
6.67345203e-07
-7.37431748e-11
6.6730612e-07
-1.67452389e-11
6.67261151e-07
3.36388463e-11
6.67213501e-07
7.8542123e-11
6.6716219e-07
1.18404117e-10
6.67106837e-07
1.53383218e-10
6.67047866e-07
1.84151415e-10
6.66985827e-07
2.11357231e-10
6.66921253e-07
2.35498787e-10
6.66854621e-07
2.56925172e-10
6.66786357e-07
2.75890008e-10
6.66716863e-07
2.92597165e-10
6.66646514e-07
3.07219255e-10
6.66575645e-07
3.19900388e-10
6.66504549e-07
3.30760552e-10
6.66433482e-07
3.39908669e-10
6.6636266e-07
3.47453632e-10
6.66292265e-07
3.53506534e-10
6.66222451e-07
3.58179435e-10
6.66153348e-07
3.61583213e-10
6.66085065e-07
3.63825546e-10
6.66017702e-07
3.65010213e-10
6.65951346e-07
3.65235375e-10
6.65886075e-07
3.64592714e-10
6.65821961e-07
3.63165721e-10
6.65759068e-07
3.61030287e-10
6.65697453e-07
3.58254011e-10
6.65637169e-07
3.54897449e-10
6.6557826e-07
3.51014423e-10
6.65520763e-07
3.46653183e-10
6.6546471e-07
3.41856683e-10
6.65410125e-07
3.36664044e-10
6.6535703e-07
3.31111375e-10
6.65305439e-07
3.25231938e-10
6.65255364e-07
3.19057172e-10
6.65206812e-07
3.12616979e-10
6.65159792e-07
3.05939387e-10
6.65114306e-07
2.99050985e-10
6.65070358e-07
2.91976823e-10
6.6502795e-07
2.84739787e-10
6.64987085e-07
2.77360868e-10
6.64947765e-07
2.69858644e-10
6.64909992e-07
2.62249474e-10
6.64873769e-07
2.54546869e-10
6.648391e-07
2.46762019e-10
6.6480599e-07
2.38902391e-10
6.64774445e-07
2.30975478e-10
6.64744476e-07
2.22968516e-10
6.64716074e-07
2.14939437e-10
6.64689278e-07
2.06595327e-10
6.64663734e-07
1.99323102e-10
1.86558233e-10
6.6660576e-07
2.57982344e-10
6.66437412e-07
7.45813745e-10
6.66176788e-07
1.1608265e-09
6.65846367e-07
1.47135175e-09
6.65472917e-07
1.65156674e-09
6.65084254e-07
1.69327194e-09
6.64706099e-07
1.60787097e-09
6.6436075e-07
1.41439336e-09
6.64067583e-07
1.12884478e-09
6.63843292e-07
7.66389748e-10
6.63700308e-07
3.53143973e-10
6.63632976e-07
-6.3092649e-11
6.63633651e-07
-4.19612959e-10
6.63685928e-07
-6.48630617e-10
6.63760554e-07
-7.00012588e-10
6.63823439e-07
-5.54920466e-10
6.63844685e-07
-2.30649215e-10
6.63796754e-07
2.24561678e-10
6.6365943e-07
7.4858697e-10
6.63431755e-07
1.27478345e-09
6.63122827e-07
1.74539949e-09
6.62750162e-07
2.1167637e-09
6.62335916e-07
2.36162385e-09
6.61904422e-07
2.46886144e-09
6.61479881e-07
2.44086173e-09
6.61084612e-07
2.29033763e-09
6.60737871e-07
2.03831339e-09
6.60454652e-07
1.71375108e-09
6.60244094e-07
1.35422951e-09
6.60107561e-07
1.00604833e-09
6.60036919e-07
7.21704672e-10
6.60013832e-07
5.53478656e-10
6.60011051e-07
5.43617276e-10
6.59996287e-07
7.13490865e-10
6.5993769e-07
1.05587558e-09
6.5980939e-07
1.53395898e-09
6.59596076e-07
2.08803195e-09
6.59295321e-07
2.64867354e-09
6.5891687e-07
3.15293394e-09
6.58479031e-07
3.55854727e-09
6.58003267e-07
3.85155025e-09
6.57508721e-07
4.04500185e-09
6.57008363e-07
4.16988945e-09
6.565077e-07
4.26223204e-09
6.56005965e-07
4.35145536e-09
6.55498778e-07
4.45389003e-09
6.5498101e-07
4.57249534e-09
6.54448786e-07
4.70116205e-09
6.53900262e-07
4.83052412e-09
6.53335386e-07
4.9525113e-09
6.5275517e-07
5.06234103e-09
6.52161014e-07
5.1582171e-09
6.51554327e-07
5.23989771e-09
6.50936462e-07
5.30730074e-09
6.50308842e-07
5.35976818e-09
6.49673102e-07
5.39600923e-09
6.49031177e-07
5.4144046e-09
6.48385312e-07
5.41334445e-09
6.47738028e-07
5.39142411e-09
6.47092076e-07
5.34749175e-09
6.46450401e-07
5.28061889e-09
6.45816102e-07
5.19006379e-09
6.45192413e-07
5.07525624e-09
6.44582666e-07
4.93580562e-09
6.4399026e-07
4.77151138e-09
6.43418627e-07
4.58237278e-09
6.42871197e-07
4.36859095e-09
6.42351374e-07
4.13055358e-09
6.41862518e-07
3.86882969e-09
6.41407938e-07
3.58415385e-09
6.40990893e-07
3.27740492e-09
6.40614595e-07
2.94959807e-09
6.40282203e-07
2.60187115e-09
6.39996808e-07
2.23547246e-09
6.39761416e-07
1.8517601e-09
6.39578956e-07
1.45218373e-09
6.39452285e-07
1.03835841e-09
6.39383737e-07
6.12189819e-10
6.39373055e-07
1.76265314e-10
6.3942531e-07
-2.68935142e-10
6.39542247e-07
-7.20003901e-10
6.39725447e-07
-1.17497257e-09
6.39975581e-07
-1.63134221e-09
6.40293021e-07
-2.0863936e-09
6.40677665e-07
-2.53716748e-09
6.41128798e-07
-2.98050565e-09
6.41645087e-07
-3.41305883e-09
6.42224566e-07
-3.83135047e-09
6.42864614e-07
-4.23183565e-09
6.43561961e-07
-4.61097124e-09
6.44312698e-07
-4.96529072e-09
6.45112312e-07
-5.29149963e-09
6.45955728e-07
-5.58655978e-09
6.46837372e-07
-5.84778671e-09
6.47751253e-07
-6.07293288e-09
6.48691051e-07
-6.26024698e-09
6.49650226e-07
-6.40853362e-09
6.50622132e-07
-6.5171845e-09
6.51600131e-07
-6.58617851e-09
6.52577713e-07
-6.61608196e-09
6.53548603e-07
-6.60802087e-09
6.5450686e-07
-6.5636266e-09
6.55446966e-07
-6.48498967e-09
6.56363893e-07
-6.37458488e-09
6.57253156e-07
-6.23520271e-09
6.58110852e-07
-6.0698583e-09
6.58933674e-07
-5.88172842e-09
6.59718916e-07
-5.67405885e-09
6.60464461e-07
-5.45010458e-09
6.61168757e-07
-5.21305942e-09
6.61830781e-07
-4.9660057e-09
6.62450003e-07
-4.71185871e-09
6.63026334e-07
-4.45333761e-09
6.6356008e-07
-4.19293617e-09
6.64051893e-07
-3.93289579e-09
6.64502728e-07
-3.67520009e-09
6.64913805e-07
-3.4215697e-09
6.65286581e-07
-3.17346278e-09
6.65622698e-07
-2.93210195e-09
6.65923927e-07
-2.6984977e-09
6.66192126e-07
-2.47346136e-09
6.66429196e-07
-2.25762453e-09
6.66637058e-07
-2.05145083e-09
6.66817623e-07
-1.85525374e-09
6.66972775e-07
-1.66920938e-09
6.67104359e-07
-1.49337675e-09
6.67214165e-07
-1.32771432e-09
6.67303917e-07
-1.17209318e-09
6.67375272e-07
-1.02631032e-09
6.67429816e-07
-8.90100198e-10
6.67469064e-07
-7.6314639e-10
6.67494447e-07
-6.45096227e-10
6.67507318e-07
-5.35572653e-10
6.67508946e-07
-4.34185176e-10
6.67500509e-07
-3.40541454e-10
6.67483051e-07
-2.54247264e-10
6.67457523e-07
-1.7487565e-10
6.67424841e-07
-1.01956825e-10
6.67386098e-07
-3.51137133e-11
6.673432e-07
2.59017417e-11
6.67296045e-07
8.05833994e-11
6.67244768e-07
1.2963298e-10
6.67189627e-07
1.73378927e-10
6.67130702e-07
2.12151838e-10
6.67068336e-07
2.46365205e-10
6.67003034e-07
2.76508932e-10
6.66935358e-07
3.03024865e-10
6.66865877e-07
3.26262371e-10
6.66795113e-07
3.46519061e-10
6.66723514e-07
3.64073107e-10
6.66651443e-07
3.7918037e-10
6.66579187e-07
3.92059255e-10
6.66506972e-07
4.02889742e-10
6.66434978e-07
4.11825723e-10
6.66363357e-07
4.19006102e-10
6.66292239e-07
4.24560307e-10
6.66221747e-07
4.28612129e-10
6.66151993e-07
4.31280799e-10
6.66083082e-07
4.32681511e-10
6.66015115e-07
4.32924843e-10
6.65948183e-07
4.321156e-10
6.65882373e-07
4.303529e-10
6.65817762e-07
4.27728068e-10
6.65754419e-07
4.24325666e-10
6.65692405e-07
4.20222231e-10
6.65631771e-07
4.15487175e-10
6.6557256e-07
4.10182843e-10
6.65514807e-07
4.04365646e-10
6.65458538e-07
3.98086085e-10
6.65403774e-07
3.91390056e-10
6.6535053e-07
3.8431947e-10
6.65298814e-07
3.76912212e-10
6.65248635e-07
3.69203247e-10
6.65199994e-07
3.61224983e-10
6.65152896e-07
3.53006966e-10
6.6510734e-07
3.44576611e-10
6.65063328e-07
3.35959258e-10
6.65020862e-07
3.27177683e-10
6.64979943e-07
3.18252708e-10
6.64940573e-07
3.0920278e-10
6.64902753e-07
3.00044193e-10
6.64866485e-07
2.90790349e-10
6.64831771e-07
2.81452313e-10
6.64798614e-07
2.72037539e-10
6.64767014e-07
2.62553564e-10
6.64736975e-07
2.52987725e-10
6.64708492e-07
2.43399812e-10
6.64681616e-07
2.3346157e-10
6.64656206e-07
2.24663283e-10
2.09384854e-10
6.66610675e-07
3.13745157e-10
6.6644484e-07
9.11868302e-10
6.66182715e-07
1.42325714e-09
6.65844879e-07
1.8093978e-09
6.65458385e-07
2.03823678e-09
6.65052972e-07
2.0988867e-09
6.64656938e-07
2.00412407e-09
6.64295284e-07
1.77625589e-09
6.63989757e-07
1.43456451e-09
6.63758917e-07
9.97410696e-10
6.63615793e-07
4.96454692e-10
6.63563458e-07
-1.10775088e-11
6.63592737e-07
-4.4896113e-10
6.63682229e-07
-7.38247246e-10
6.63798645e-07
-8.16569015e-10
6.63903213e-07
-6.59608079e-10
6.63958474e-07
-2.8593274e-10
6.6393196e-07
2.51151238e-10
6.63806365e-07
8.74242102e-10
6.63577854e-07
1.50332838e-09
6.63256362e-07
2.06691162e-09
6.62862029e-07
2.51112513e-09
6.6242073e-07
2.80297274e-09
6.6196065e-07
2.92901546e-09
6.61509735e-07
2.89187534e-09
6.61093756e-07
2.7064411e-09
6.60734793e-07
2.39742663e-09
6.60449747e-07
1.99897378e-09
6.6024854e-07
1.55563664e-09
6.60132095e-07
1.12271244e-09
6.60090687e-07
7.6335199e-10
6.60103635e-07
5.40798619e-10
6.60141084e-07
5.06472297e-10
6.6016756e-07
6.87351414e-10
6.60147175e-07
1.07663438e-09
6.60050166e-07
1.63138668e-09
6.59858627e-07
2.28004016e-09
6.59569419e-07
2.93840189e-09
6.59193362e-07
3.5295657e-09
6.58751021e-07
4.00151512e-09
6.5826653e-07
4.33672058e-09
6.57761416e-07
4.55084551e-09
6.57250293e-07
4.68178972e-09
6.5673943e-07
4.77391649e-09
6.56228054e-07
4.86369432e-09
6.55711295e-07
4.97155059e-09
6.55183342e-07
5.10138451e-09
6.54639688e-07
5.24578392e-09
6.54078022e-07
5.39318691e-09
6.53498002e-07
5.53355292e-09
6.52900494e-07
5.66089112e-09
6.52286833e-07
5.77293705e-09
6.51658404e-07
5.86939787e-09
6.51016569e-07
5.95021558e-09
6.50362786e-07
6.01463486e-09
6.49698765e-07
6.06111378e-09
6.49026555e-07
6.08769168e-09
6.48348561e-07
6.09240682e-09
6.47667496e-07
6.07354217e-09
6.46986334e-07
6.02968777e-09
6.46308258e-07
5.95970577e-09
6.45636619e-07
5.86268474e-09
6.44974906e-07
5.73791923e-09
6.44326708e-07
5.5849166e-09
6.43695685e-07
5.40340592e-09
6.43085539e-07
5.19334484e-09
6.42499991e-07
4.95491769e-09
6.41942755e-07
4.68851639e-09
6.41417522e-07
4.39473626e-09
6.40927932e-07
4.07436203e-09
6.40477552e-07
3.72834647e-09
6.40069854e-07
3.35780047e-09
6.39708195e-07
2.96397433e-09
6.39395813e-07
2.54823745e-09
6.39135813e-07
2.11207716e-09
6.38931146e-07
1.65710144e-09
6.38784635e-07
1.18504854e-09
6.38699132e-07
6.9779855e-10
6.38678016e-07
1.97423833e-10
6.38722851e-07
-3.13817218e-10
6.38835819e-07
-8.33086041e-10
6.39018501e-07
-1.35784346e-09
6.39272163e-07
-1.88526635e-09
6.39597553e-07
-2.41211627e-09
6.39994843e-07
-2.93485917e-09
6.40463577e-07
-3.44970874e-09
6.41002618e-07
-3.95263297e-09
6.41610093e-07
-4.43941854e-09
6.42283351e-07
-4.90574502e-09
6.43018958e-07
-5.3472831e-09
6.43812705e-07
-5.75979325e-09
6.44659649e-07
-6.13924486e-09
6.45554167e-07
-6.481922e-09
6.46490041e-07
-6.78454299e-09
6.47460555e-07
-7.04436214e-09
6.48458609e-07
-7.25924362e-09
6.49476845e-07
-7.42773587e-09
6.50507788e-07
-7.54911233e-09
6.51543986e-07
-7.62337416e-09
6.52578149e-07
-7.65125033e-09
6.53603283e-07
-7.63416203e-09
6.54612804e-07
-7.57415325e-09
6.55600645e-07
-7.47382871e-09
6.56561331e-07
-7.33625729e-09
6.5749004e-07
-7.16488243e-09
6.58382637e-07
-6.96340733e-09
6.59235693e-07
-6.73571318e-09
6.60046477e-07
-6.485745e-09
6.60812934e-07
-6.21743676e-09
6.61533656e-07
-5.9346262e-09
6.62207833e-07
-5.64099436e-09
6.62835196e-07
-5.34000097e-09
6.63415966e-07
-5.03485171e-09
6.63950788e-07
-4.72846678e-09
6.64440672e-07
-4.42345397e-09
6.64886941e-07
-4.12210747e-09
6.65291176e-07
-3.82640734e-09
6.65655167e-07
-3.53802304e-09
6.65980869e-07
-3.25833864e-09
6.66270344e-07
-2.98847504e-09
6.66525721e-07
-2.72930812e-09
6.66749153e-07
-2.48149637e-09
6.66942791e-07
-2.24549939e-09
6.67108757e-07
-2.02160183e-09
6.67249123e-07
-1.80993057e-09
6.67365896e-07
-1.61047861e-09
6.67461e-07
-1.42312379e-09
6.67536269e-07
-1.24764513e-09
6.6759344e-07
-1.08374295e-09
6.67634152e-07
-9.31055457e-10
6.67659953e-07
-7.89173065e-10
6.676723e-07
-6.57653624e-10
6.67672562e-07
-5.36032088e-10
6.67662019e-07
-4.2382653e-10
6.67641845e-07
-3.20544131e-10
6.67613117e-07
-2.25694742e-10
6.67576913e-07
-1.38854378e-10
6.67534596e-07
-5.98302923e-11
6.67488077e-07
1.13237963e-11
6.67436158e-07
7.78044966e-11
6.67379886e-07
1.36869845e-10
6.67319858e-07
1.89684895e-10
6.67256567e-07
2.36696532e-10
6.67190408e-07
2.78338944e-10
6.67121768e-07
3.15035172e-10
6.67051067e-07
3.4724074e-10
6.66978701e-07
3.75422321e-10
6.66904999e-07
3.9999471e-10
6.66830254e-07
4.21291981e-10
6.66754764e-07
4.3958468e-10
6.66678848e-07
4.55112986e-10
6.66602816e-07
4.68103019e-10
6.6652695e-07
4.787649e-10
6.66451492e-07
4.87290752e-10
6.66376646e-07
4.9385857e-10
6.66302578e-07
4.98635804e-10
6.66229418e-07
5.01780893e-10
6.66157273e-07
5.0343629e-10
6.66086233e-07
5.03734108e-10
6.66016373e-07
5.02798126e-10
6.6594776e-07
5.00743947e-10
6.6588045e-07
4.97679293e-10
6.65814494e-07
4.93702482e-10
6.65749934e-07
4.88903804e-10
6.6568681e-07
4.83364746e-10
6.65625157e-07
4.77159519e-10
6.65565004e-07
4.70355117e-10
6.65506377e-07
4.63012418e-10
6.65449297e-07
4.55186055e-10
6.6539378e-07
4.46925846e-10
6.65339841e-07
4.38277433e-10
6.65287491e-07
4.29282163e-10
6.65236735e-07
4.19978232e-10
6.65187578e-07
4.10400971e-10
6.65140021e-07
4.00582402e-10
6.65094065e-07
3.90552027e-10
6.65049706e-07
3.80336859e-10
6.65006942e-07
3.69960841e-10
6.64965768e-07
3.59445517e-10
6.64926179e-07
3.48809616e-10
6.64888173e-07
3.38069434e-10
6.64851743e-07
3.2723816e-10
6.64816887e-07
3.16326682e-10
6.64783601e-07
3.05342291e-10
6.64751879e-07
2.94293198e-10
6.64721718e-07
2.83166536e-10
6.64693096e-07
2.72035906e-10
6.64666032e-07
2.60552281e-10
6.64640161e-07
2.50495969e-10
2.33315445e-10
6.6660979e-07
3.70291326e-10
6.66442594e-07
1.07920305e-09
6.66178618e-07
1.68737421e-09
6.65839017e-07
2.14898197e-09
6.65450972e-07
2.42620075e-09
6.65043952e-07
2.50585255e-09
6.64645923e-07
2.40213317e-09
6.64281661e-07
2.14051321e-09
6.63972925e-07
1.74330658e-09
6.63738062e-07
1.23229707e-09
6.6358931e-07
6.45233695e-10
6.63531553e-07
4.72928538e-11
6.6356056e-07
-4.77760273e-10
6.63650114e-07
-8.27567427e-10
6.63766968e-07
-9.33192e-10
6.63872162e-07
-7.64596014e-10
6.63927496e-07
-3.41097991e-10
6.63905132e-07
2.73611786e-10
6.6378687e-07
9.92540682e-10
6.63568545e-07
1.72167486e-09
6.63258665e-07
2.37679635e-09
6.6287548e-07
2.89428732e-09
6.62443733e-07
3.23466804e-09
6.61991159e-07
3.38151418e-09
6.61545618e-07
3.33732277e-09
6.61133066e-07
3.11888451e-09
6.60776056e-07
2.75431754e-09
6.60492252e-07
2.2826491e-09
6.60292597e-07
1.75515278e-09
6.60179192e-07
1.23596861e-09
6.60143442e-07
7.9893583e-10
6.6016529e-07
5.18756493e-10
6.60214319e-07
4.57209767e-10
6.60253858e-07
6.47546554e-10
6.60247418e-07
1.08277801e-09
6.6016499e-07
1.71348406e-09
6.59988173e-07
2.45648682e-09
6.59712963e-07
3.21320223e-09
6.59349202e-07
3.89287789e-09
6.58916721e-07
4.43350561e-09
6.58439358e-07
4.81355469e-09
6.57938755e-07
5.05088025e-09
6.57429881e-07
5.19005737e-09
6.56919381e-07
5.28377405e-09
6.56406718e-07
5.37568081e-09
6.55887065e-07
5.49049458e-09
6.55354501e-07
5.63320973e-09
6.54804333e-07
5.79518647e-09
6.54234062e-07
5.96266811e-09
6.53643204e-07
6.12360173e-09
6.53032533e-07
6.2707346e-09
6.52403343e-07
6.40128695e-09
6.51757012e-07
6.51487749e-09
6.51094931e-07
6.6114396e-09
6.50418618e-07
6.69008671e-09
6.49729884e-07
6.74898838e-09
6.49030917e-07
6.78580284e-09
6.48324299e-07
6.79817695e-09
6.47612961e-07
6.78404415e-09
6.46900126e-07
6.74170236e-09
6.46189256e-07
6.66977389e-09
6.4548401e-07
6.56715111e-09
6.44788204e-07
6.43297238e-09
6.44105765e-07
6.26663133e-09
6.4344069e-07
6.06778997e-09
6.42796992e-07
5.83638874e-09
6.42178651e-07
5.57264307e-09
6.41589578e-07
5.27701412e-09
6.41033591e-07
4.95018992e-09
6.40514409e-07
4.59305362e-09
6.4003566e-07
4.20664787e-09
6.39600894e-07
3.7921616e-09
6.39213593e-07
3.35091551e-09
6.38877163e-07
2.88435262e-09
6.38594925e-07
2.39404892e-09
6.3837009e-07
1.88171913e-09
6.38205741e-07
1.3492317e-09
6.38104752e-07
7.9867441e-10
6.38069726e-07
2.3238946e-10
6.38103522e-07
-3.47612647e-10
6.3820869e-07
-9.38201609e-10
6.38387344e-07
-1.53639152e-09
6.38641055e-07
-2.13881808e-09
6.38970879e-07
-2.7417293e-09
6.39377283e-07
-3.34100451e-09
6.39860062e-07
-3.93218259e-09
6.40418262e-07
-4.51048577e-09
6.41050123e-07
-5.07089333e-09
6.41753025e-07
-5.60822402e-09
6.42523455e-07
-6.11725561e-09
6.43356999e-07
-6.5928484e-09
6.44248365e-07
-7.03009427e-09
6.4519144e-07
-7.42445268e-09
6.46179368e-07
-7.77190434e-09
6.47204678e-07
-8.06908358e-09
6.48259418e-07
-8.31337675e-09
6.49335322e-07
-8.50301748e-09
6.50423984e-07
-8.63713896e-09
6.51517033e-07
-8.71577792e-09
6.52606307e-07
-8.73987141e-09
6.53684013e-07
-8.71120882e-09
6.54742862e-07
-8.63234213e-09
6.55776196e-07
-8.50650244e-09
6.56778073e-07
-8.33747583e-09
6.5774333e-07
-8.12948688e-09
6.58667622e-07
-7.88705429e-09
6.59547431e-07
-7.6148856e-09
6.60380047e-07
-7.3177372e-09
6.61163542e-07
-7.00032141e-09
6.61896716e-07
-6.66720442e-09
6.62579036e-07
-6.32273478e-09
6.63210566e-07
-5.97096959e-09
6.63791895e-07
-5.61563878e-09
6.64324063e-07
-5.26011263e-09
6.64808486e-07
-4.90737577e-09
6.6524689e-07
-4.56003089e-09
6.65641244e-07
-4.22030308e-09
6.65993706e-07
-3.89004775e-09
6.66306563e-07
-3.5707801e-09
6.66582183e-07
-3.26370107e-09
6.66822968e-07
-2.96972089e-09
6.67031317e-07
-2.68949425e-09
6.67209595e-07
-2.42344538e-09
6.67360103e-07
-2.17179882e-09
6.67485068e-07
-1.93460286e-09
6.67586623e-07
-1.71176007e-09
6.67666808e-07
-1.50305149e-09
6.67727559e-07
-1.30815637e-09
6.67770715e-07
-1.12667368e-09
6.67798009e-07
-9.58137416e-10
6.67811066e-07
-8.02029869e-10
6.67811402e-07
-6.57798375e-10
6.67800424e-07
-5.24870489e-10
6.67779447e-07
-4.02669262e-10
6.67749713e-07
-2.90627034e-10
6.67712383e-07
-1.8816491e-10
6.67668272e-07
-9.4505318e-11
6.67616879e-07
-8.11560447e-12
6.675601e-07
6.81991578e-11
6.67500217e-07
1.37746096e-10
6.67436714e-07
2.00413768e-10
6.67370013e-07
2.56419051e-10
6.67300526e-07
3.06209172e-10
6.67228629e-07
3.50256071e-10
6.67154666e-07
3.89013842e-10
6.67078995e-07
4.2292506e-10
6.67002011e-07
4.5241523e-10
6.66924136e-07
4.77877251e-10
6.66845758e-07
4.99676168e-10
6.66767197e-07
5.1815226e-10
6.66688702e-07
5.33614558e-10
6.66610475e-07
5.4633513e-10
6.66532694e-07
5.56550558e-10
6.66455516e-07
5.6447072e-10
6.66379082e-07
5.70291703e-10
6.6630352e-07
5.74195075e-10
6.66228945e-07
5.76349185e-10
6.66155463e-07
5.76910073e-10
6.66083163e-07
5.76022783e-10
6.66012126e-07
5.73822694e-10
6.6594242e-07
5.70434867e-10
6.65874109e-07
5.65975065e-10
6.65807245e-07
5.60549229e-10
6.65741876e-07
5.54255356e-10
6.65678039e-07
5.47182407e-10
6.65615768e-07
5.39411824e-10
6.65555087e-07
5.3101746e-10
6.65496013e-07
5.22066662e-10
6.6543856e-07
5.12619897e-10
6.65382735e-07
5.027321e-10
6.6532854e-07
4.92453146e-10
6.65275975e-07
4.81827572e-10
6.65225039e-07
4.70895843e-10
6.65175726e-07
4.59694774e-10
6.65128032e-07
4.4825719e-10
6.65081952e-07
4.36612985e-10
6.6503748e-07
4.24789314e-10
6.64994612e-07
4.12810069e-10
6.64953342e-07
4.00696741e-10
6.64913664e-07
3.88468042e-10
6.64875574e-07
3.76140355e-10
6.64839067e-07
3.6372701e-10
6.64804136e-07
3.51239157e-10
6.64770775e-07
3.38684642e-10
6.64738978e-07
3.26072266e-10
6.64708737e-07
3.13389986e-10
6.6468004e-07
3.00711558e-10
6.64652932e-07
2.87652113e-10
6.64627285e-07
2.76073469e-10
2.56343394e-10
6.66609346e-07
4.27376718e-10
6.66440597e-07
1.24809045e-09
6.66173091e-07
1.95503551e-09
6.65827353e-07
2.4947352e-09
6.65430768e-07
2.82274216e-09
6.6501386e-07
2.92273329e-09
6.64605967e-07
2.81001492e-09
6.64233313e-07
2.51314486e-09
6.63919165e-07
2.05741054e-09
6.6368351e-07
1.46788843e-09
6.63540762e-07
7.87908017e-10
6.63497565e-07
9.03466755e-11
6.63537232e-07
-5.17589868e-10
6.63642199e-07
-9.32705533e-10
6.63776911e-07
-1.06806773e-09
6.63900122e-07
-8.87947131e-10
6.63972696e-07
-4.13797523e-10
6.63962408e-07
2.83815292e-10
6.6385067e-07
1.10423985e-09