/*--------------------------------*- C++ -*----------------------------------*\
| =========                 |                                                 |
| \\      /  F ield         | OpenFOAM: The Open Source CFD Toolbox           |
|  \\    /   O peration     | Version:  v2012                                 |
|   \\  /    A nd           | Website:  www.openfoam.com                      |
|    \\/     M anipulation  |                                                 |
\*---------------------------------------------------------------------------*/
FoamFile
{
    version     2.0;
    format      ascii;
    class       surfaceScalarField;
    location    "2.79";
    object      phiHbyA;
}
// * * * * * * * * * * * * * * * * * * * * * * * * * * * * * * * * * * * * * //

dimensions      [0 3 -1 0 0 0 0];
oriented        oriented;


internalField   nonuniform List<scalar> 
56481
(
6.66721549e-07
-1.12513902e-10
6.66868e-07
-3.44824448e-10
6.67097728e-07
-5.65253934e-10
6.67388686e-07
-7.24008076e-10
6.67707278e-07
-7.77876169e-10
6.6801524e-07
-7.09261099e-10
6.68275222e-07
-5.25549371e-10
6.68453052e-07
-2.49463091e-10
6.68555944e-07
8.47940932e-11
6.68588454e-07
4.3074708e-10
6.68545223e-07
7.58597082e-10
6.68433536e-07
1.03370513e-09
6.68268191e-07
1.23433783e-09
6.68067995e-07
1.3486709e-09
6.67852512e-07
1.37535273e-09
6.6764017e-07
1.32099445e-09
6.67447157e-07
1.19718914e-09
6.67286658e-07
1.01887896e-09
6.67167883e-07
8.05070442e-10
6.67094565e-07
5.80904152e-10
6.67063299e-07
3.78294274e-10
6.6706228e-07
2.32844553e-10
6.67069749e-07
1.77553348e-10
6.67058226e-07
2.32678249e-10
6.66999428e-07
4.0233296e-10
6.66867854e-07
6.70990311e-10
6.66645829e-07
1.0081214e-09
6.66325756e-07
1.37490493e-09
6.6590999e-07
1.73180946e-09
6.65409057e-07
2.04486025e-09
6.64839008e-07
2.28927481e-09
6.64218678e-07
2.45065812e-09
6.6356744e-07
2.52449979e-09
6.62903691e-07
2.51484318e-09
6.62243872e-07
2.43289319e-09
6.61601627e-07
2.29598788e-09
6.6098673e-07
2.12692162e-09
6.6040363e-07
1.95316631e-09
6.59849862e-07
1.80528121e-09
6.59315003e-07
1.71392527e-09
6.58781072e-07
1.70541668e-09
6.58224989e-07
1.79656212e-09
6.5762281e-07
1.99017985e-09
6.56954535e-07
2.27298568e-09
6.56208019e-07
2.6170774e-09
6.55380942e-07
2.98520038e-09
6.54480525e-07
3.33863313e-09
6.5352123e-07
3.64547059e-09
6.52521201e-07
3.88681148e-09
6.51498468e-07
4.05902636e-09
6.5046789e-07
4.17167146e-09
6.49439537e-07
4.2421459e-09
6.48418672e-07
4.28923532e-09
6.47406977e-07
4.32780065e-09
6.46404328e-07
4.36608613e-09
6.45410429e-07
4.40587565e-09
6.44425813e-07
4.44462409e-09
6.43452105e-07
4.4781925e-09
6.42491751e-07
4.5029956e-09
6.41547524e-07
4.5169957e-09
6.40622084e-07
4.51963457e-09
6.39717751e-07
4.51118992e-09
6.38836466e-07
4.49207906e-09
6.37979877e-07
4.46243221e-09
6.37149451e-07
4.4219879e-09
6.36346557e-07
4.37020309e-09
6.35572515e-07
4.3064215e-09
6.34828607e-07
4.22998671e-09
6.34116084e-07
4.14029693e-09
6.33436181e-07
4.03680342e-09
6.32790138e-07
3.91898897e-09
6.32179223e-07
3.78636816e-09
6.31604766e-07
3.63849533e-09
6.31068185e-07
3.47497708e-09
6.30571015e-07
3.29549926e-09
6.30114945e-07
3.09984515e-09
6.29701871e-07
2.88790258e-09
6.29334002e-07
2.6596683e-09
6.29014159e-07
2.41518994e-09
6.2874654e-07
2.15439009e-09
6.28533843e-07
1.87617717e-09
6.28378074e-07
1.57966268e-09
6.28280161e-07
1.26597546e-09
6.28240096e-07
9.35459931e-10
6.28256051e-07
5.89884818e-10
6.28322987e-07
2.32714056e-10
6.2844086e-07
-1.36730139e-10
6.28643511e-07
-5.12305915e-10
6.28925995e-07
-8.90482775e-10
6.29288264e-07
-1.27565638e-09
6.29729861e-07
-1.66609086e-09
6.30250547e-07
-2.05985109e-09
6.30849953e-07
-2.45487282e-09
6.31527198e-07
-2.84839094e-09
6.32280794e-07
-3.23718596e-09
6.33108565e-07
-3.61779074e-09
6.34007558e-07
-3.98653279e-09
6.34974003e-07
-4.33959129e-09
6.36003314e-07
-4.67308669e-09
6.37090131e-07
-4.98319473e-09
6.38228367e-07
-5.26626434e-09
6.39411287e-07
-5.51893243e-09
6.40631592e-07
-5.73825036e-09
6.41881523e-07
-5.92178148e-09
6.43152983e-07
-6.06768842e-09
6.44437671e-07
-6.17477778e-09
6.45727236e-07
-6.24254536e-09
6.47013428e-07
-6.27116407e-09
6.48288255e-07
-6.26147505e-09
6.49544128e-07
-6.21493879e-09
6.50773982e-07
-6.13357979e-09
6.51971386e-07
-6.01989839e-09
6.53130619e-07
-5.87679168e-09
6.54246727e-07
-5.70745727e-09
6.5531555e-07
-5.51528624e-09
6.56333731e-07
-5.30377664e-09
6.57298697e-07
-5.0764433e-09
6.58208631e-07
-4.83672907e-09
6.59062425e-07
-4.58794403e-09
6.59859622e-07
-4.33320766e-09
6.60600351e-07
-4.07539741e-09
6.6128526e-07
-3.81712455e-09
6.61915445e-07
-3.56070923e-09
6.62492385e-07
-3.30817439e-09
6.63017872e-07
-3.06123894e-09
6.63493947e-07
-2.82133057e-09
6.63922838e-07
-2.58959685e-09
6.64306913e-07
-2.36691594e-09
6.64648649e-07
-2.1539216e-09
6.64950604e-07
-1.95102918e-09
6.65215383e-07
-1.75846163e-09
6.65445587e-07
-1.57628051e-09
6.65643804e-07
-1.40441244e-09
6.65812601e-07
-1.24267344e-09
6.65954529e-07
-1.09079815e-09
6.66072086e-07
-9.48469369e-10
6.66167686e-07
-8.15351078e-10
6.66243668e-07
-6.91120041e-10
6.66302288e-07
-5.75480731e-10
6.66345692e-07
-4.68180285e-10
6.66375856e-07
-3.69030573e-10
6.66394434e-07
-2.77868373e-10
6.66402535e-07
-1.94486878e-10
6.66400644e-07
-1.18665516e-10
6.66388683e-07
-5.00419295e-11
6.66366854e-07
1.15808328e-11
6.66339353e-07
6.70834331e-11
6.6630559e-07
1.17382831e-10
6.66265864e-07
1.61968351e-10
6.66220706e-07
2.01346447e-10
6.66170754e-07
2.35991384e-10
6.66116636e-07
2.66352539e-10
6.66058944e-07
2.92851884e-10
6.65998236e-07
3.15873666e-10
6.65935034e-07
3.35762469e-10
6.6586982e-07
3.52826025e-10
6.65803034e-07
3.6733813e-10
6.6573507e-07
3.79540941e-10
6.65666278e-07
3.89647491e-10
6.65596964e-07
3.97846337e-10
6.6552739e-07
4.04305598e-10
6.65457784e-07
4.09177527e-10
6.6538834e-07
4.12601105e-10
6.65319225e-07
4.14705438e-10
6.65250584e-07
4.15610171e-10
6.65182542e-07
4.15427125e-10
6.65115212e-07
4.14260354e-10
6.65048691e-07
4.12206817e-10
6.64983067e-07
4.09355765e-10
6.64918419e-07
4.05789417e-10
6.64854816e-07
4.01582948e-10
6.64792321e-07
3.96803903e-10
6.64730987e-07
3.91512964e-10
6.64670862e-07
3.85764235e-10
6.64611985e-07
3.79605082e-10
6.64554389e-07
3.73077279e-10
6.64498102e-07
3.66217493e-10
6.64443145e-07
3.59057484e-10
6.64389535e-07
3.51625475e-10
6.64337284e-07
3.43946289e-10
6.64286405e-07
3.3604201e-10
6.64236909e-07
3.27931297e-10
6.6418881e-07
3.19629894e-10
6.64142124e-07
3.11147885e-10
6.64096874e-07
3.02495834e-10
6.64053103e-07
2.9364244e-10
6.64010843e-07
2.84684763e-10
6.6397029e-07
2.75039396e-10
6.63931256e-07
2.66849544e-10
2.50111769e-10
6.66704546e-07
-1.51013519e-10
6.66839944e-07
-4.81409705e-10
6.67071994e-07
-7.9877742e-10
6.6738221e-07
-1.03568825e-09
6.67736014e-07
-1.13310259e-09
6.68090685e-07
-1.06536448e-09
6.68404477e-07
-8.40757636e-10
6.68644957e-07
-4.91235115e-10
6.68792571e-07
-6.45369561e-11
6.68824108e-07
3.98147117e-10
6.68756547e-07
8.25357241e-10
6.68605103e-07
1.18453907e-09
6.68390867e-07
1.44817933e-09
6.68137447e-07
1.60184099e-09
6.67868871e-07
1.6437734e-09
6.67607808e-07
1.58196172e-09
6.67374501e-07
1.43043212e-09
6.67186072e-07
1.20725673e-09
6.67055337e-07
9.35757998e-10
6.66988587e-07
6.47613246e-10
6.6698267e-07
3.84190772e-10
6.67022894e-07
1.92635085e-10
6.67084392e-07
1.16114643e-10
6.67134202e-07
1.83009534e-10
6.67136683e-07
4.000988e-10
6.67058809e-07
7.49239984e-10
6.66876069e-07
1.19138095e-09
6.66576114e-07
1.67552948e-09
6.66159581e-07
2.14916379e-09
6.6563847e-07
2.56694957e-09
6.65032944e-07
2.8959399e-09
6.64367676e-07
3.11723103e-09
6.63668606e-07
3.2250489e-09
6.62960519e-07
3.22459483e-09
6.62265375e-07
3.12989788e-09
6.61601008e-07
2.9624211e-09
6.60979774e-07
2.75043357e-09
6.60406994e-07
2.52842916e-09
6.59879491e-07
2.33546111e-09
6.59384788e-07
2.21147565e-09
6.5890166e-07
2.19154096e-09
6.58402425e-07
2.29891627e-09
6.57857015e-07
2.53880428e-09
6.57238247e-07
2.89503697e-09
6.56527108e-07
3.33153962e-09
6.55716576e-07
3.7990755e-09
6.54812712e-07
4.24584447e-09
6.53832644e-07
4.62888237e-09
6.52800065e-07
4.92272702e-09
6.51739687e-07
5.12272824e-09
6.50672341e-07
5.2423203e-09
6.49612038e-07
5.30572198e-09
6.48565487e-07
5.33901436e-09
6.47533705e-07
5.36275124e-09
6.46514687e-07
5.38819819e-09
6.45506001e-07
5.41756361e-09
6.44506499e-07
5.44702256e-09
6.43516868e-07
5.47060478e-09
6.42539266e-07
5.48325084e-09
6.41576563e-07
5.48221858e-09
6.40631615e-07
5.46696319e-09
6.39706855e-07
5.43818702e-09
6.3880421e-07
5.39681444e-09
6.37925228e-07
5.34336008e-09
6.37071248e-07
5.27776844e-09
6.36243543e-07
5.19956693e-09
6.35443379e-07
5.10810605e-09
6.34672032e-07
5.0027203e-09
6.33930787e-07
4.88279966e-09
6.33220944e-07
4.7477813e-09
6.32543836e-07
4.59711393e-09
6.31900859e-07
4.43025013e-09
6.31293503e-07
4.24665151e-09
6.30723378e-07
4.04580157e-09
6.30192247e-07
3.82723503e-09
6.29702053e-07
3.59055427e-09
6.29254956e-07
3.33543041e-09
6.28853372e-07
3.06160269e-09
6.28499992e-07
2.76884637e-09
6.28197651e-07
2.45693779e-09
6.27948422e-07
2.12554365e-09
6.27753613e-07
1.77453274e-09
6.27614879e-07
1.40464369e-09
6.27534542e-07
1.01553976e-09
6.27517224e-07
6.06694151e-10
6.27571485e-07
1.77723702e-10
6.27694433e-07
-2.60704694e-10
6.27889485e-07
-7.08191353e-10
6.28162693e-07
-1.16466937e-09
6.28516205e-07
-1.63029244e-09
6.28952343e-07
-2.10345426e-09
6.29472362e-07
-2.58121228e-09
6.30076609e-07
-3.06059021e-09
6.30764812e-07
-3.53819328e-09
6.3153597e-07
-4.01007525e-09
6.32388224e-07
-4.47190763e-09
6.33318785e-07
-4.91908933e-09
6.34323903e-07
-5.34683033e-09
6.35398837e-07
-5.75026434e-09
6.36537884e-07
-6.12459667e-09
6.37734416e-07
-6.46525372e-09
6.38980963e-07
-6.76802512e-09
6.40269313e-07
-7.0292213e-09
6.41590653e-07
-7.24579863e-09
6.42935721e-07
-7.41547451e-09
6.44294995e-07
-7.5367913e-09
6.45658887e-07
-7.609179e-09
6.47017941e-07
-7.63294415e-09
6.48363033e-07
-7.60925745e-09
6.49685544e-07
-7.54008762e-09
6.50977518e-07
-7.42812348e-09
6.52231787e-07
-7.27665382e-09
6.53442064e-07
-7.0894575e-09
6.54602998e-07
-6.87067347e-09
6.55710205e-07
-6.6246594e-09
6.56760263e-07
-6.35587742e-09
6.57750683e-07
-6.06877788e-09
6.58679858e-07
-5.76768781e-09
6.59546998e-07
-5.45673527e-09
6.60352051e-07
-5.13977962e-09
6.61095616e-07
-4.82035151e-09
6.61778857e-07
-4.50162683e-09
6.6240341e-07
-4.18640099e-09
6.62971304e-07
-3.87708669e-09
6.63484872e-07
-3.57571191e-09
6.63946685e-07
-3.28394138e-09
6.64359488e-07
-3.0030961e-09
6.64726142e-07
-2.73416989e-09
6.65049569e-07
-2.47785992e-09
6.65332714e-07
-2.23460261e-09
6.65578507e-07
-2.00460914e-09
6.65789846e-07
-1.78790668e-09
6.6596957e-07
-1.58436337e-09
6.66120425e-07
-1.39370302e-09
6.66245042e-07
-1.21554662e-09
6.66345938e-07
-1.04945993e-09
6.66425496e-07
-8.94976959e-10
6.6648595e-07
-7.51620238e-10
6.66529355e-07
-6.18917728e-10
6.66557542e-07
-4.96390348e-10
6.66572082e-07
-3.83592509e-10
6.66574332e-07
-2.80148797e-10
6.66565561e-07
-1.85760484e-10
6.66547062e-07
-1.00225336e-10
6.66520244e-07
-2.32841688e-11
6.66486121e-07
4.56146876e-11
6.66445497e-07
1.07691653e-10
6.66399522e-07
1.63366356e-10
6.66348712e-07
2.12803662e-10
6.66293622e-07
2.56475775e-10
6.66234772e-07
2.94893329e-10
6.6617267e-07
3.28516336e-10
6.66107811e-07
3.57780585e-10
6.66040665e-07
3.83097321e-10
6.65971666e-07
4.04844319e-10
6.65901216e-07
4.2336361e-10
6.65829681e-07
4.38963708e-10
6.65757392e-07
4.51921785e-10
6.65684647e-07
4.62485601e-10
6.65611709e-07
4.70877568e-10
6.6553881e-07
4.77297882e-10
6.65466152e-07
4.81928403e-10
6.6539391e-07
4.84934647e-10
6.65322236e-07
4.86469262e-10
6.65251263e-07
4.86672408e-10
6.65181104e-07
4.85673804e-10
6.65111857e-07
4.83593002e-10
6.65043608e-07
4.80540414e-10
6.6497643e-07
4.76616846e-10
6.64910386e-07
4.71914549e-10
6.64845531e-07
4.66517479e-10
6.64781911e-07
4.60500877e-10
6.64719567e-07
4.53932368e-10
6.64658532e-07
4.46872397e-10
6.64598835e-07
4.39374053e-10
6.64540497e-07
4.31484345e-10
6.64483537e-07
4.23244767e-10
6.64427969e-07
4.14691252e-10
6.64373803e-07
4.05855493e-10
6.64321045e-07
3.9676491e-10
6.64269703e-07
3.87443311e-10
6.64219782e-07
3.77910059e-10
6.64171287e-07
3.68180895e-10
6.64124224e-07
3.58264672e-10
6.64078597e-07
3.48173321e-10
6.64034421e-07
3.37869363e-10
6.63991652e-07
3.27494969e-10
6.63950363e-07
3.16388973e-10
6.63909832e-07
3.07330587e-10
2.88932318e-10
6.66713707e-07
-1.97650742e-10
6.66853679e-07
-6.21116652e-10
6.67086014e-07
-1.03071482e-09
6.67391875e-07
-1.34097908e-09
6.67737812e-07
-1.47839567e-09
6.68083803e-07
-1.41074447e-09
6.68390537e-07
-1.14694125e-09
6.68625271e-07
-7.25465528e-10
6.68765633e-07
-2.04514947e-10
6.68810896e-07
3.53063037e-10
6.6875812e-07
8.78093691e-10
6.68621123e-07
1.32138863e-09
6.68420334e-07
1.64871398e-09
6.68178997e-07
1.84285485e-09
6.67920764e-07
1.90164415e-09
6.67668007e-07
1.834341e-09
6.67440719e-07
1.65734613e-09
6.67255698e-07
1.39191955e-09
6.67125406e-07
1.06571755e-09
6.6705611e-07
7.16603199e-10
6.6704571e-07
3.94307164e-10
6.67081805e-07
1.56279046e-10
6.67139867e-07
5.77946197e-11
6.67185795e-07
1.3683433e-10
6.67184446e-07
4.01184259e-10
6.6710475e-07
8.28611245e-10
6.66924222e-07
1.37151937e-09
6.66631346e-07
1.9679551e-09
6.66226185e-07
2.55381681e-09
6.65719216e-07
3.07335355e-09
6.65128715e-07
3.48582277e-09
6.6447757e-07
3.76770784e-09
6.63790314e-07
3.91158628e-09
6.63090777e-07
3.92335996e-09
6.6240037e-07
3.81947516e-09
6.61736734e-07
3.62516167e-09
6.61112418e-07
3.37378124e-09
6.60533372e-07
3.10643126e-09
6.59997371e-07
2.87034557e-09
6.59492957e-07
2.71471175e-09
6.58999762e-07
2.68350939e-09
6.58490865e-07
2.80655177e-09
6.57937055e-07
3.0913332e-09
6.57312071e-07
3.51873467e-09
6.56597515e-07
4.04481705e-09
6.55786209e-07
4.60911851e-09
6.54883154e-07
5.14765239e-09
6.53903829e-07
5.60697746e-09
6.52870257e-07
5.95508332e-09
6.51805996e-07
6.18578611e-09
6.5073151e-07
6.31561664e-09
6.49661186e-07
6.37487095e-09
6.48602598e-07
6.39644656e-09
6.4755776e-07
6.40645515e-09
6.46525514e-07
6.41933882e-09
6.4550396e-07
6.4380428e-09
6.44492156e-07
6.45778782e-09
6.43490751e-07
6.47100937e-09
6.42501756e-07
6.47128657e-09
6.41527874e-07
6.45518219e-09
6.40571841e-07
6.42212034e-09
6.39636016e-07
6.37317722e-09
6.38722285e-07
6.30975405e-09
6.3783215e-07
6.23274339e-09
6.36966904e-07
6.14230229e-09
6.3612776e-07
6.03803679e-09
6.35315923e-07
5.91930442e-09
6.34532618e-07
5.78542348e-09
6.33779084e-07
5.63576511e-09
6.3305659e-07
5.46974043e-09
6.32366449e-07
5.28675146e-09
6.31710052e-07
5.08617629e-09
6.31088891e-07
4.86737258e-09
6.30504592e-07
4.62969172e-09
6.29958938e-07
4.37251229e-09
6.29453888e-07
4.09525894e-09
6.289916e-07
3.7974065e-09
6.28574433e-07
3.4784898e-09
6.28204935e-07
3.13809812e-09
6.27885793e-07
2.77586705e-09
6.27619686e-07
2.3914702e-09
6.27409383e-07
1.98469223e-09
6.27258344e-07
1.55558348e-09
6.27169652e-07
1.10422106e-09
6.27144468e-07
6.32012219e-10
6.27178912e-07
1.43533371e-10
6.27284124e-07
-3.65530876e-10
6.27465219e-07
-8.88939953e-10
6.27726896e-07
-1.4259235e-09
6.28071537e-07
-1.9744298e-09
6.28500899e-07
-2.53224502e-09
6.2901674e-07
-3.09641482e-09
6.29620179e-07
-3.66331794e-09
6.30311527e-07
-4.22875355e-09
6.3109026e-07
-4.78794342e-09
6.31954916e-07
-5.33562111e-09
6.32902994e-07
-5.86614806e-09
6.33930889e-07
-6.37363165e-09
6.35033854e-07
-6.85206513e-09
6.36205998e-07
-7.2955113e-09
6.37440328e-07
-7.69829271e-09
6.38728823e-07
-8.05517484e-09
6.40062562e-07
-8.36156858e-09
6.41431887e-07
-8.61369444e-09
6.42826605e-07
-8.80873363e-09
6.44236207e-07
-8.94491499e-09
6.45650113e-07
-9.02159589e-09
6.47057908e-07
-9.03924957e-09
6.48449576e-07
-8.99944523e-09
6.49815708e-07
-8.90475879e-09
6.51147685e-07
-8.75866567e-09
6.5243781e-07
-8.56538118e-09
6.53679418e-07
-8.32971214e-09
6.54866934e-07
-8.05688552e-09
6.55995888e-07
-7.7523658e-09
6.57062903e-07
-7.42170723e-09
6.58065652e-07
-7.0704072e-09
6.59002785e-07
-6.7037689e-09
6.5987384e-07
-6.32680945e-09
6.60679148e-07
-5.94417833e-09
6.61419723e-07
-5.56009013e-09
6.6209716e-07
-5.1782993e-09
6.62713529e-07
-4.80207661e-09
6.6327128e-07
-4.43421322e-09
6.6377315e-07
-4.07702423e-09
6.6422208e-07
-3.73237809e-09
6.64621141e-07
-3.40172557e-09
6.64973475e-07
-3.08613077e-09
6.65282251e-07
-2.78631788e-09
6.65550627e-07
-2.50271142e-09
6.6578171e-07
-2.23547197e-09
6.65978518e-07
-1.98453944e-09
6.66143967e-07
-1.74967558e-09
6.66280862e-07
-1.53049743e-09
6.66391883e-07
-1.32649863e-09
6.66479578e-07
-1.13711308e-09
6.66546354e-07
-9.61733142e-10
6.66594502e-07
-7.99766855e-10
6.66626198e-07
-6.50629753e-10
6.66643505e-07
-5.13723464e-10
6.66648367e-07
-3.88487889e-10
6.66642541e-07
-2.74353981e-10
6.66627452e-07
-1.70696396e-10
6.66604115e-07
-7.69032856e-11
6.6657294e-07
7.84196359e-12
6.66534041e-07
8.44811222e-11
6.66488777e-07
1.52901258e-10
6.66438156e-07
2.13912888e-10
6.66382862e-07
2.68012445e-10
6.66323501e-07
3.15742189e-10
6.66260652e-07
3.57639181e-10
6.66194851e-07
3.94207262e-10
6.66126595e-07
4.25921383e-10
6.66056347e-07
4.53227338e-10
6.65984531e-07
4.76538305e-10
6.65911539e-07
4.962328e-10
6.65837723e-07
5.12656328e-10
6.65763399e-07
5.26123225e-10
6.65688845e-07
5.36917805e-10
6.65614305e-07
5.4529752e-10
6.6553999e-07
5.51495021e-10
6.65466081e-07
5.55721388e-10
6.65392734e-07
5.58167623e-10
6.65320084e-07
5.59008328e-10
6.65248246e-07
5.58402171e-10
6.6517732e-07
5.56494514e-10
6.65107391e-07
5.53418092e-10
6.65038536e-07
5.49294596e-10
6.6497082e-07
5.44234517e-10
6.64904301e-07
5.38338682e-10
6.64839027e-07
5.31698816e-10
6.6477504e-07
5.24397232e-10
6.64712377e-07
5.16508187e-10
6.64651067e-07
5.08098377e-10
6.64591133e-07
4.99226674e-10
6.64532593e-07
4.89945472e-10
6.6447546e-07
4.80301189e-10
6.64419745e-07
4.70334027e-10
6.64365451e-07
4.60079266e-10
6.64312581e-07
4.49567114e-10
6.64261136e-07
4.38823406e-10
6.64211116e-07
4.27868735e-10
6.64162518e-07
4.16719603e-10
6.64115341e-07
4.05385053e-10
6.64069582e-07
3.93878437e-10
6.64025244e-07
3.8215772e-10
6.63982305e-07
3.70379059e-10
6.63940884e-07
3.57780776e-10
6.63900771e-07
3.47316916e-10
3.26162836e-10
6.66709984e-07
-2.40734906e-10
6.66849955e-07
-7.61258012e-10
6.67088595e-07
-1.26961554e-09
6.67409539e-07
-1.66211399e-09
6.67778519e-07
-1.84750961e-09
6.6815184e-07
-1.78419596e-09
6.68485313e-07
-1.48053992e-09
6.68741616e-07
-9.8186682e-10
6.68893826e-07
-3.56809136e-10
6.68939625e-07
3.07439349e-10
6.68879551e-07
9.38460969e-10
6.68728064e-07
1.47326241e-09
6.68506888e-07
1.87032143e-09
6.68241762e-07
2.10844246e-09
6.679593e-07
2.18458645e-09
6.67684895e-07
2.10923129e-09
6.67441437e-07
1.90128428e-09
6.6724827e-07
1.58555672e-09
6.67119662e-07
1.19478126e-09
6.67062279e-07
7.74429749e-10
6.67071998e-07
3.85011612e-10
6.67132351e-07
9.63229387e-11
6.67218104e-07
-2.76459978e-11
6.67297446e-07
5.78232704e-11
6.67332417e-07
3.66483111e-10
6.67286455e-07
8.74882108e-10
6.6713178e-07
1.52652887e-09
6.66853566e-07
2.24651346e-09
6.66451157e-07
2.9565798e-09
6.65936163e-07
3.58870925e-09
6.65329222e-07
4.09313077e-09
6.64656329e-07
4.44096968e-09
6.63945456e-07
4.62283075e-09
6.63223864e-07
4.64532405e-09
6.6251611e-07
4.52760487e-09
6.61842388e-07
4.29926423e-09
6.61216856e-07
3.99970281e-09
6.60645838e-07
3.67784673e-09
6.60126275e-07
3.39031359e-09
6.59644975e-07
3.19641929e-09
6.59179254e-07
3.14963565e-09
6.58699356e-07
3.28685272e-09
6.58172701e-07
3.61838856e-09
6.57569443e-07
4.12238805e-09
6.56868116e-07
4.74653406e-09
6.56059778e-07
5.41783941e-09
6.5514938e-07
6.05842443e-09
6.54153912e-07
6.60281438e-09
6.53097895e-07
7.01146486e-09
6.52007657e-07
7.27638599e-09
6.5090609e-07
7.4175463e-09
6.49809286e-07
7.47203731e-09
6.48725697e-07
7.48039871e-09
6.47657506e-07
7.47500877e-09
6.46603258e-07
7.47394761e-09
6.45560572e-07
7.48108854e-09
6.44528037e-07
7.49068019e-09
6.43505964e-07
7.49343789e-09
6.42496165e-07
7.48143912e-09
6.41501243e-07
7.45045435e-09
6.40523876e-07
7.3998374e-09
6.39566358e-07
7.33104217e-09
6.3863049e-07
7.2459687e-09
6.3771767e-07
7.14590762e-09
6.36829077e-07
7.03123856e-09
6.35965811e-07
6.90164534e-09
6.3512897e-07
6.75648457e-09
6.34319687e-07
6.59504409e-09
6.3353913e-07
6.41665636e-09
6.32788517e-07
6.22068257e-09
6.32069141e-07
6.00645142e-09
6.31382397e-07
5.77323774e-09
6.30729813e-07
5.52026453e-09
6.30113082e-07
5.24671994e-09
6.29534081e-07
4.95179788e-09
6.28994888e-07
4.63472353e-09
6.28497784e-07
4.2947642e-09
6.2804526e-07
3.9312496e-09
6.27639993e-07
3.54358064e-09
6.27284815e-07
3.13123712e-09
6.26982644e-07
2.69380791e-09
6.26736427e-07
2.23104923e-09
6.26549135e-07
1.74298627e-09
6.26423493e-07
1.22993123e-09
6.26363e-07
6.92509767e-10
6.26375802e-07
1.30673222e-10
6.2646179e-07
-4.51647595e-10
6.26626549e-07
-1.05385106e-09
6.26873723e-07
-1.67330532e-09
6.27207179e-07
-2.30814626e-09
6.27630151e-07
-2.95552938e-09
6.2814518e-07
-3.61181135e-09
6.28754106e-07
-4.27266799e-09
6.29457955e-07
-4.93308575e-09
6.30256816e-07
-5.58734864e-09
6.31149696e-07
-6.2291046e-09
6.32134382e-07
-6.85149629e-09
6.33207341e-07
-7.4473124e-09
6.34363663e-07
-8.00916325e-09
6.35597035e-07
-8.5297122e-09
6.36899786e-07
-9.00192016e-09
6.38262974e-07
-9.41928356e-09
6.39676542e-07
-9.77609512e-09
6.41129516e-07
-1.00676592e-08
6.42610256e-07
-1.02904892e-08
6.44106732e-07
-1.04424249e-08
6.45606827e-07
-1.05227362e-08
6.47098637e-07
-1.05321087e-08
6.48570758e-07
-1.04726128e-08
6.50012548e-07
-1.03475835e-08
6.51414336e-07
-1.0161473e-08
6.52767598e-07
-9.91963931e-09
6.54065065e-07
-9.62814584e-09
6.55300782e-07
-9.29353684e-09
6.56470122e-07
-8.92260257e-09
6.57569749e-07
-8.52218972e-09
6.58597548e-07
-8.09901829e-09
6.59552528e-07
-7.65951492e-09
6.60434704e-07
-7.20970347e-09
6.61244967e-07
-6.75511189e-09
6.61984954e-07
-6.30069916e-09
6.62656914e-07
-5.85083256e-09
6.63263581e-07
-5.40926876e-09
6.63808057e-07
-4.97916764e-09
6.64293705e-07
-4.56310686e-09
6.64724063e-07
-4.1631263e-09
6.65102759e-07
-3.7807706e-09
6.6543345e-07
-3.41713106e-09
6.65719761e-07
-3.07290222e-09
6.65965245e-07
-2.74843263e-09
6.66173342e-07
-2.44377481e-09
6.66347369e-07
-2.15874127e-09
6.66490493e-07
-1.89294622e-09
6.66605718e-07
-1.64584259e-09
6.66695895e-07
-1.41677043e-09
6.66763708e-07
-1.20499855e-09
6.66811686e-07
-1.00976098e-09
6.6684217e-07
-8.30279752e-10
6.66857226e-07
-6.65694298e-10
6.66858577e-07
-5.15065023e-10
6.66847629e-07
-3.77515168e-10
6.66825596e-07
-2.52291374e-10
6.66793658e-07
-1.38729928e-10
6.66752739e-07
-3.59646759e-11
6.66705194e-07
5.54660344e-11
6.66652084e-07
1.37650795e-10
6.66594021e-07
2.110399e-10
6.66531682e-07
2.76337931e-10
6.66465675e-07
3.34111627e-10
6.66396571e-07
3.84944288e-10
6.66324889e-07
4.29424441e-10
6.66251098e-07
4.68105527e-10
6.66175625e-07
5.01505211e-10
6.66098857e-07
5.3010795e-10
6.66021145e-07
5.54363232e-10
6.65942808e-07
5.74683524e-10
6.65864132e-07
5.91445685e-10
6.65785374e-07
6.04992962e-10
6.65706765e-07
6.15636524e-10
6.65628511e-07
6.23659169e-10
6.65550794e-07
6.29317482e-10
6.65473774e-07
6.32845179e-10
6.65397587e-07
6.34454341e-10
6.65322355e-07
6.34339133e-10
6.65248177e-07
6.3267592e-10
6.65175139e-07
6.29625938e-10
6.65103312e-07
6.25335898e-10
6.65032756e-07
6.19939709e-10
6.64963519e-07
6.13558337e-10
6.6489564e-07
6.06301613e-10
6.64829151e-07
5.98268969e-10
6.64764079e-07
5.89549217e-10
6.64700441e-07
5.80222184e-10
6.64638254e-07
5.70359373e-10
6.64577529e-07
5.60023733e-10
6.64518272e-07
5.49271226e-10
6.64460488e-07
5.38151407e-10
6.64404179e-07
5.26707151e-10
6.64349343e-07
5.14976095e-10
6.64295978e-07
5.02990466e-10
6.6424408e-07
4.90777904e-10
6.64193641e-07
4.78360558e-10
6.64144655e-07
4.65756635e-10
6.64097113e-07
4.52976651e-10
6.64050999e-07
4.40038423e-10
6.64006304e-07
4.26897947e-10
6.63962964e-07
4.13754414e-10
6.6392103e-07
3.99771061e-10
6.63879798e-07
3.88493823e-10
3.65724959e-10
6.66711261e-07
-2.85189309e-10
6.66853736e-07
-9.03831245e-10
6.67095259e-07
-1.51125819e-09
6.67418474e-07
-1.98534041e-09
6.67789245e-07
-2.21823794e-09
6.68165057e-07
-2.15999918e-09
6.68503374e-07
-1.81890176e-09
6.68768093e-07
-1.2466558e-09
6.68936825e-07
-5.25597099e-10
6.68991179e-07
2.52760525e-10
6.68936922e-07
9.92397166e-10
6.68789764e-07
1.62003744e-09
6.68572151e-07
2.08753377e-09
6.68309646e-07
2.37053759e-09
6.68028688e-07
2.4651243e-09
6.67754731e-07
2.38276446e-09
6.67510801e-07
2.14479188e-09
6.67316389e-07
1.77954613e-09
6.67186102e-07
1.32464244e-09
6.671278e-07
8.32294644e-10
6.67140544e-07
3.71825167e-10
6.67213141e-07
2.33160699e-11
6.67312544e-07
-1.27326099e-10
6.67406855e-07
-3.67142131e-11
6.67450765e-07
3.22326491e-10
6.67412416e-07
9.12963528e-10
6.67266032e-07
1.67262318e-09
6.66997823e-07
2.51443809e-09
6.66606452e-07
3.34767196e-09
6.66102322e-07
4.09256053e-09
6.65505002e-07
4.69017394e-09
6.64839725e-07
5.10597139e-09
6.64134049e-07
5.32823587e-09
6.63415119e-07
5.36399042e-09
6.62707571e-07
5.23489728e-09
6.62031848e-07
4.97474331e-09
6.614026e-07
4.62871826e-09
6.60826981e-07
4.25324839e-09
6.60302889e-07
3.91420639e-09
6.59817803e-07
3.6813293e-09
6.5934913e-07
3.61814946e-09
6.58866731e-07
3.76909861e-09
6.58337522e-07
4.14743881e-09
6.57731237e-07
4.72849709e-09
6.57026008e-07
5.45156363e-09
6.5621237e-07
6.23125451e-09
6.55294632e-07
6.97591925e-09
6.54289207e-07
7.60797848e-09
6.53220353e-07
8.08004377e-09
6.52114564e-07
8.38188994e-09
6.50995264e-07
8.53655307e-09
6.49879272e-07
8.58772999e-09
6.48775753e-07
8.58361277e-09
6.47687454e-07
8.56299893e-09
6.46613274e-07
8.54781344e-09
6.45551001e-07
8.54304252e-09
6.44499269e-07
8.54208571e-09
6.43458378e-07
8.53399771e-09
6.42430106e-07
8.50937277e-09
6.41417023e-07
8.46319382e-09
6.40421758e-07
8.39475431e-09
6.39446539e-07
8.3059068e-09
6.38493072e-07
8.19907776e-09
6.37562636e-07
8.07598229e-09
6.3665627e-07
7.93724032e-09
6.35774931e-07
7.78261884e-09
6.34919581e-07
7.61146748e-09
6.34091229e-07
7.42302955e-09
6.33290941e-07
7.21658006e-09
6.32519854e-07
6.99140856e-09
6.31779203e-07
6.74674721e-09
6.31070347e-07
6.4817447e-09
6.30394803e-07
6.19546928e-09
6.29754264e-07
5.88693025e-09
6.2915062e-07
5.55512617e-09
6.28585967e-07
5.1990756e-09
6.28062616e-07
4.81783122e-09
6.27583094e-07
4.4105057e-09
6.27150142e-07
3.97628678e-09
6.26766703e-07
3.51445123e-09
6.26435908e-07
3.02440149e-09
6.26161073e-07
2.50570823e-09
6.25945744e-07
1.95816644e-09
6.25793686e-07
1.38187037e-09
6.25708779e-07
7.77337103e-10
6.25693951e-07
1.45458668e-10
6.25754606e-07
-5.12301344e-10
6.25895539e-07
-1.19475242e-09
6.26121931e-07
-1.89963522e-09
6.26438184e-07
-2.62430007e-09
6.26848244e-07
-3.36545369e-09
6.27355583e-07
-4.11897926e-09
6.27963008e-07
-4.87988683e-09
6.28672459e-07
-5.6422947e-09
6.29484829e-07
-6.39944295e-09
6.30399788e-07
-7.14375515e-09
6.31415605e-07
-7.8669729e-09
6.32528998e-07
-8.56033505e-09
6.33735028e-07
-9.21479496e-09
6.35027051e-07
-9.82131007e-09
6.36396735e-07
-1.03711559e-08
6.37834161e-07
-1.0856239e-08
6.39327997e-07
-1.12694396e-08
6.40865745e-07
-1.16048994e-08
6.42434064e-07
-1.18582842e-08
6.4401912e-07
-1.20269437e-08
6.45606975e-07
-1.21100432e-08
6.47183968e-07
-1.21085462e-08
6.48737081e-07
-1.20251641e-08
6.50254254e-07
-1.18641923e-08
6.51724652e-07
-1.16313068e-08
6.53138857e-07
-1.13332833e-08
6.54488995e-07
-1.0977728e-08
6.55768788e-07
-1.05727832e-08
6.5697355e-07
-1.01268272e-08
6.58100115e-07
-9.64823232e-09
6.59146743e-07
-9.14513849e-09
6.60112971e-07
-8.62525334e-09
6.60999462e-07
-8.09572457e-09
6.61807836e-07
-7.56303664e-09
6.625405e-07
-7.0329355e-09
6.63200484e-07
-6.5104135e-09
6.63791296e-07
-5.99970087e-09
6.64316779e-07
-5.50429482e-09
6.64780993e-07
-5.02698926e-09
6.65188111e-07
-4.5699367e-09
6.65542331e-07
-4.1347071e-09
6.65847807e-07
-3.72234614e-09
6.66108592e-07
-3.33344948e-09
6.66328603e-07
-2.96822746e-09
6.66511585e-07
-2.62656296e-09
6.66661093e-07
-2.30807467e-09
6.66780471e-07
-2.01216895e-09
6.6687285e-07
-1.73808573e-09
6.66941141e-07
-1.48494393e-09
6.66988019e-07
-1.2517768e-09
6.67015907e-07
-1.03756709e-09
6.67026972e-07
-8.41282231e-10
6.67023222e-07
-6.61902611e-10
6.67006633e-07
-4.98456612e-10
6.66979181e-07
-3.50061425e-10
6.66942701e-07
-2.15821787e-10
6.66898726e-07
-9.47661848e-11
6.66848365e-07
1.43689176e-11
6.66791467e-07
1.12323172e-10
6.66729216e-07
1.99852555e-10
6.66662452e-07
2.77745464e-10
6.66591974e-07
3.46753452e-10
6.66518415e-07
4.07602941e-10
6.66442325e-07
4.60962714e-10
6.66364202e-07
5.07472109e-10
6.66284495e-07
5.47734347e-10
6.6620361e-07
5.82311237e-10
6.66121911e-07
6.11725354e-10
6.66039731e-07
6.36461303e-10
6.65957368e-07
6.56965487e-10
6.65875084e-07
6.73648082e-10
6.65793112e-07
6.86884609e-10
6.65711653e-07
6.97016728e-10
6.6563088e-07
7.04355479e-10
6.65550939e-07
7.09182852e-10
6.65471955e-07
7.11754915e-10
6.65394034e-07
7.12302885e-10
6.65317265e-07
7.11037288e-10
6.65241723e-07
7.08148248e-10
6.65167472e-07
7.03808737e-10
6.65094566e-07
6.98175482e-10
6.6502305e-07
6.91391104e-10
6.6495296e-07
6.83584128e-10
6.64884328e-07
6.74871149e-10
6.64817179e-07
6.65357753e-10
6.64751531e-07
6.55138331e-10
6.64687398e-07
6.44297924e-10
6.64624788e-07
6.32912917e-10
6.64563708e-07
6.21050717e-10
6.64504156e-07
6.08771386e-10
6.64446129e-07
5.96128179e-10
6.64389621e-07
5.83167116e-10
6.64334622e-07
5.69928508e-10
6.64281122e-07
5.56446721e-10
6.64229106e-07
5.4275114e-10
6.6417856e-07
5.28865289e-10
6.64129469e-07
5.14808769e-10
6.64081814e-07
5.00593452e-10
6.64035576e-07
4.86240405e-10
6.63990737e-07
4.71703405e-10
6.63947251e-07
4.57201073e-10
6.63905208e-07
4.41798746e-10
6.63864333e-07
4.29252222e-10
4.03899706e-10
6.66712531e-07
-3.3080725e-10
6.66858664e-07
-1.05006548e-09
6.67107305e-07
-1.76003452e-09
6.67441459e-07
-2.3195232e-09
6.67826057e-07
-2.60279602e-09
6.68216727e-07
-2.55062932e-09
6.68568563e-07
-2.1707026e-09
6.68843171e-07
-1.52120615e-09
6.69012262e-07
-6.94617709e-10
6.69070373e-07
1.9493437e-10
6.69018707e-07
1.0442759e-09
6.68870866e-07
1.76812235e-09
6.68649003e-07
2.30964441e-09
6.68380087e-07
2.63970103e-09
6.68092489e-07
2.75297205e-09
6.67813604e-07
2.66190407e-09
6.67568327e-07
2.39032725e-09
6.67377806e-07