/*--------------------------------*- C++ -*----------------------------------*\
| =========                 |                                                 |
| \\      /  F ield         | OpenFOAM: The Open Source CFD Toolbox           |
|  \\    /   O peration     | Version:  v2012                                 |
|   \\  /    A nd           | Website:  www.openfoam.com                      |
|    \\/     M anipulation  |                                                 |
\*---------------------------------------------------------------------------*/
FoamFile
{
    version     2.0;
    format      ascii;
    class       volScalarField;
    location    "2.79";
    object      rAU;
}
// * * * * * * * * * * * * * * * * * * * * * * * * * * * * * * * * * * * * * //

dimensions      [0 0 1 0 0 0 0];


internalField   nonuniform List<scalar> 
28416
(
0.000664815317
0.0006648252
0.000664820989
0.00066481654
0.0006648126
0.000664809755
0.000664808351
0.000664808555
0.000664805014
0.000664797523
0.000664791393
0.000664787178
0.000664785114
0.000664785209
0.000664787259
0.000664790916
0.000664795751
0.000664801304
0.000664807083
0.000664812529
0.000664817029
0.000664820006
0.000664821065
0.000664820126
0.000664817437
0.000664813613
0.000664809468
0.000664805863
0.000664803563
0.000664803126
0.000664804871
0.000664808877
0.000664815018
0.000664822999
0.000664832398
0.000664842691
0.000664853289
0.000664863573
0.00066487295
0.000664880931
0.000664887207
0.00066489172
0.000664894693
0.000664896615
0.000664898178
0.000664900148
0.00066490322
0.000664907872
0.000664914285
0.000664922331
0.000664931658
0.000664941805
0.000664952338
0.000664962939
0.000664973444
0.000664983819
0.000664994106
0.00066500437
0.000665014654
0.00066502497
0.0006650353
0.000665045617
0.000665055891
0.000665066106
0.000665076251
0.000665086324
0.000665096329
0.000665106264
0.000665116126
0.00066512592
0.000665135639
0.000665145279
0.000665154838
0.000665164305
0.000665173666
0.000665182911
0.000665192012
0.000665200943
0.000665209665
0.000665218113
0.000665226298
0.00066523423
0.000665241882
0.000665249258
0.000665256357
0.000665263197
0.000665267581
0.000665261918
0.000665255246
0.000665247578
0.000665238935
0.000665229347
0.000665218838
0.000665207442
0.000665195212
0.0006651822
0.000665168474
0.000665154115
0.000665139208
0.000665123849
0.000665108145
0.000665092201
0.000665076129
0.00066506004
0.000665044047
0.000665028252
0.00066501276
0.000664997661
0.000664983042
0.000664968975
0.000664955529
0.00066494275
0.00066493068
0.000664919351
0.000664908777
0.000664898965
0.000664889917
0.00066488162
0.000664874055
0.000664867204
0.000664861035
0.000664855518
0.000664850617
0.0006648463
0.000664842528
0.000664839262
0.000664836471
0.000664834115
0.00066483216
0.000664830576
0.000664829327
0.000664828384
0.000664827721
0.000664827306
0.000664827114
0.000664827122
0.000664827302
0.00066482763
0.000664828087
0.000664828646
0.000664829285
0.000664829983
0.000664830727
0.000664831501
0.00066483231
0.000664833014
0.000664832346
0.000664831653
0.000664831159
0.000664830838
0.000664830672
0.000664830646
0.000664830742
0.000664830945
0.000664831244
0.000664831624
0.000664832073
0.000664832588
0.000664833154
0.000664833767
0.000664834417
0.000664835105
0.000664835819
0.00066483656
0.00066483732
0.000664838097
0.000664838886
0.000664839687
0.000664840493
0.000664841303
0.000664842117
0.000664842929
0.000664843738
0.000664844546
0.000664845347
0.00066484614
0.000664846928
0.000664847706
0.000664848475
0.000664849232
0.000664849981
0.000664850718
0.000664851442
0.000664852156
0.000664852855
0.000664853541
0.000664854214
0.00066485488
0.000664855494
0.000664869443
0.000664804929
0.000664813887
0.000664808696
0.000664803327
0.000664798671
0.000664795416
0.000664793949
0.00066479438
0.000664795527
0.000664790559
0.000664786461
0.000664784106
0.000664783562
0.000664784724
0.000664787333
0.000664791042
0.000664795455
0.000664800168
0.000664804772
0.000664808827
0.000664811896
0.000664813613
0.000664813766
0.000664812412
0.000664809888
0.000664806779
0.000664803815
0.000664801719
0.000664801086
0.000664802292
0.000664805483
0.000664810588
0.000664817377
0.000664825505
0.000664834558
0.000664844088
0.000664853629
0.000664862724
0.000664870965
0.000664878036
0.000664883783
0.000664888258
0.000664891748
0.000664894752
0.000664897903
0.000664901843
0.000664907095
0.000664913953
0.000664922432
0.000664932301
0.000664943167
0.000664954591
0.000664966198
0.000664977745
0.000664989125
0.000665000344
0.000665011457
0.000665022525
0.000665033581
0.000665044623
0.000665055625
0.000665066551
0.000665077367
0.000665088051
0.000665098588
0.000665108967
0.000665119185
0.000665129232
0.000665139099
0.000665148782
0.000665158268
0.000665167548
0.000665176613
0.000665185449
0.000665194039
0.00066520237
0.000665210417
0.000665218156
0.000665225561
0.0006652326
0.000665239251
0.000665245506
0.000665251333
0.00066525671
0.000665261588
0.000665265878
0.000665264822
0.000665258272
0.000665250791
0.000665242309
0.000665232819
0.000665222332
0.000665210864
0.00066519845
0.000665185143
0.000665171
0.000665156095
0.00066514052
0.00066512437
0.000665107754
0.000665090793
0.000665073609
0.00066505633
0.000665039085
0.000665022003
0.000665005204
0.000664988807
0.000664972914
0.000664957623
0.000664943012
0.000664929155
0.000664916099
0.000664903884
0.000664892538
0.000664882068
0.000664872473
0.000664863745
0.000664855859
0.000664848786
0.000664842494
0.00066483694
0.000664832082
0.000664827873
0.00066482427
0.000664821224
0.000664818688
0.000664816622
0.000664814978
0.000664813717
0.000664812804
0.000664812198
0.000664811866
0.000664811781
0.000664811908
0.000664812221
0.000664812699
0.000664813314
0.000664814044
0.000664814874
0.000664815781
0.00066481675
0.000664817768
0.000664818825
0.000664819904
0.000664820998
0.000664821424
0.00066482118
0.000664821069
0.000664821088
0.00066482122
0.000664821454
0.000664821782
0.000664822191
0.000664822669
0.000664823212
0.000664823808
0.000664824447
0.000664825128
0.000664825841
0.00066482658
0.000664827341
0.000664828121
0.000664828913
0.000664829717
0.000664830528
0.000664831343
0.000664832158
0.000664832976
0.00066483379
0.000664834599
0.000664835405
0.000664836202
0.00066483699
0.000664837771
0.00066483854
0.000664839297
0.000664840045
0.000664840779
0.000664841501
0.000664842208
0.000664842904
0.000664843584
0.00066484425
0.000664844903
0.000664845541
0.000664846164
0.000664846773
0.000664847373
0.000664847939
0.000664861783
0.000664804381
0.000664812165
0.000664805865
0.000664799658
0.000664794599
0.000664791439
0.000664790526
0.000664791865
0.000664795162
0.000664791215
0.000664785825
0.000664782343
0.000664780918
0.00066478148
0.000664783781
0.000664787461
0.000664792099
0.00066479726
0.000664802486
0.00066480727
0.000664811064
0.000664813358
0.000664813798
0.000664812345
0.000664809319
0.00066480533
0.000664801183
0.000664797718
0.000664795669
0.00066479555
0.000664797614
0.000664801867
0.00066480811
0.000664816003
0.00066482511
0.00066483494
0.000664844968
0.000664854654
0.000664863484
0.000664871026
0.000664877013
0.000664881415
0.000664884483
0.00066488674
0.000664888901
0.000664891742
0.000664895935
0.000664901913
0.000664909785
0.00066491935
0.000664930183
0.00066494177
0.000664953651
0.000664965504
0.00066497718
0.000664988667
0.000665000032
0.000665011354
0.000665022683
0.000665034027
0.00066504536
0.000665056644
0.00066506784
0.000665078923
0.000665089874
0.000665100683
0.000665111348
0.000665121858
0.000665132207
0.000665142391
0.000665152397
0.000665162217
0.000665171845
0.000665181266
0.000665190466
0.000665199433
0.000665208145
0.00066521658
0.000665224717
0.000665232526
0.000665239979
0.000665247052
0.000665253699
0.000665259887
0.000665265584
0.000665270786
0.000665268111
0.000665260893
0.000665252648
0.000665243346
0.000665232986
0.000665221584
0.000665209159
0.000665195746
0.000665181401
0.000665166186
0.000665150183
0.000665133492
0.000665116221
0.000665098491
0.000665080439
0.000665062202
0.000665043926
0.000665025754
0.000665007834
0.000664990297
0.000664973276
0.000664956883
0.00066494122
0.00066492637
0.000664912407
0.000664899374
0.000664887306
0.000664876223
0.000664866121
0.000664856988
0.000664848803
0.000664841528
0.000664835121
0.000664829539
0.000664824724
0.000664820623
0.00066481718
0.000664814342
0.000664812052
0.000664810256
0.000664808908
0.000664807957
0.000664807358
0.000664807075
0.000664807065
0.000664807293
0.000664807733
0.00066480835
0.000664809119
0.000664810019
0.000664811025
0.000664812114
0.000664813273
0.000664814478
0.000664815714
0.000664816965
0.00066481822
0.000664819465
0.000664820603
0.00066482043
0.000664820167
0.000664820048
0.000664820064
0.000664820199
0.000664820439
0.000664820776
0.000664821195
0.000664821686
0.000664822244
0.000664822855
0.000664823511
0.00066482421
0.00066482494
0.000664825698
0.000664826477
0.000664827277
0.000664828088
0.000664828911
0.000664829741
0.000664830575
0.00066483141
0.000664832247
0.00066483308
0.000664833908
0.000664834733
0.00066483555
0.000664836356
0.000664837156
0.000664837944
0.000664838719
0.000664839485
0.000664840237
0.000664840976
0.0006648417
0.000664842414
0.000664843112
0.000664843795
0.000664844466
0.000664845122
0.000664845762
0.00066484639
0.000664847009
0.000664847585
0.000664861444
0.000664803876
0.000664810591
0.000664803161
0.000664795942
0.000664790166
0.000664786698
0.000664785933
0.000664787854
0.000664792099
0.000664790251
0.000664783735
0.000664779375
0.00066477739
0.000664777725
0.000664780108
0.000664784131
0.000664789311
0.000664795141
0.000664801088
0.000664806549
0.000664810879
0.000664813472
0.00066481356
0.000664811967
0.000664808012
0.000664802706
0.000664797016
0.00066479197
0.00066478847
0.000664787156
0.00066478836
0.000664792111
0.000664798194
0.000664806219
0.000664815685
0.000664826021
0.000664836615
0.000664846832
0.000664856061
0.000664863773
0.00066486962
0.000664873523
0.00066487574
0.000664876868
0.000664877754
0.000664879336
0.000664882447
0.000664887639
0.000664895079
0.000664904553
0.000664915568
0.000664927515
0.000664939833
0.000664952129
0.000664964216
0.000664976077
0.000664987795
0.000664999474
0.000665011181
0.000665022936
0.000665034715
0.000665046475
0.000665058173
0.00066506978
0.000665081276
0.000665092652
0.000665103906
0.00066511503
0.000665126018
0.000665136868
0.000665147567
0.000665158109
0.000665168489
0.000665178693
0.000665188708
0.000665198523
0.000665208117
0.000665217469
0.000665226558
0.000665235355
0.00066524383
0.000665251956
0.000665259696
0.000665267015
0.000665273864
0.000665280154
0.000665276328
0.000665268426
0.000665259422
0.000665249296
0.000665238036
0.000665225651
0.000665212158
0.000665197593
0.000665182014
0.00066516549
0.00066514811
0.000665129988
0.000665111244
0.00066509202
0.000665072471
0.000665052759
0.00066503305
0.000665013513
0.000664994318
0.000664975618
0.000664957562
0.000664940279
0.000664923882
0.000664908461
0.000664894092
0.000664880818
0.000664868668
0.000664857655
0.000664847763
0.000664838968
0.000664831233
0.000664824507
0.000664818731
0.000664813845
0.000664809779
0.000664806465
0.000664803832
0.000664801818
0.000664800354
0.000664799376
0.000664798832
0.000664798664
0.000664798821
0.000664799262
0.000664799942
0.000664800823
0.000664801877
0.000664803069
0.000664804373
0.000664805767
0.000664807227
0.000664808732
0.000664810269
0.000664811821
0.000664813381
0.000664814939
0.000664816493
0.000664818034
0.000664818802
0.000664818471
0.000664818298
0.000664818264
0.000664818361
0.000664818572
0.000664818883
0.000664819287
0.00066481977
0.000664820321
0.000664820935
0.0006648216
0.000664822308
0.000664823057
0.000664823835
0.00066482464
0.000664825464
0.000664826307
0.00066482716
0.000664828024
0.000664828893
0.000664829764
0.000664830635
0.000664831506
0.000664832372
0.000664833231
0.000664834085
0.00066483493
0.000664835764
0.000664836591
0.000664837404
0.000664838205
0.000664838995
0.000664839771
0.000664840533
0.00066484128
0.000664842015
0.000664842735
0.000664843439
0.000664844131
0.000664844807
0.000664845468
0.000664846115
0.000664846756
0.000664847355
0.000664861257
0.000664803354
0.00066480893
0.000664800337
0.000664792154
0.000664785813
0.000664782273
0.000664781914
0.000664784626
0.000664789876
0.000664790265
0.000664782441
0.000664776971
0.000664774141
0.000664773937
0.000664776095
0.000664780196
0.000664785728
0.000664792142
0.000664798844
0.00066480514
0.000664810247
0.000664813382
0.000664812153
0.000664811397
0.000664807149
0.000664800809
0.000664793785
0.000664787228
0.000664782192
0.000664779465
0.000664779495
0.000664782385
0.000664787949
0.000664795796
0.000664805393
0.000664816119
0.000664827288
0.000664838173
0.000664848042
0.000664856242
0.000664862307
0.000664866077
0.000664867783
0.000664868059
0.000664867855
0.000664868256
0.00066487026
0.000664874565
0.000664881429
0.000664890661
0.000664901727
0.000664913933
0.000664926622
0.000664939323
0.000664951799
0.00066496402
0.000664976078
0.000664988096
0.00066500016
0.000665012297
0.000665024485
0.000665036677
0.000665048826
0.000665060898
0.000665072873
0.000665084743
0.000665096507
0.000665108159
0.000665119695
0.000665131114
0.000665142406
0.000665153567
0.000665164592
0.00066517547
0.000665186191
0.000665196745
0.000665207114
0.000665217278
0.000665227219
0.000665236908
0.000665246315
0.000665255412
0.000665264156
0.000665272503
0.000665280403
0.000665287815
0.000665283443
0.00066527491
0.000665265198
0.000665254279
0.00066524214
0.000665228787
0.000665214233
0.000665198514
0.00066518169
0.000665163834
0.000665145044
0.000665125446
0.000665105177
0.000665084398
0.000665063288
0.000665042033
0.000665020828
0.000664999871
0.000664979356
0.000664959463
0.000664940364
0.000664922202
0.000664905106
0.000664889172
0.000664874478
0.000664861065
0.000664848954
0.000664838145
0.00066482861
0.000664820307
0.000664813181
0.000664807161
0.000664802171
0.000664798131
0.000664794954
0.000664792556
0.000664790853
0.000664789768
0.000664789222
0.000664789144
0.000664789472
0.000664790141
0.000664791098
0.000664792298
0.000664793693
0.000664795245
0.000664796924
0.000664798696
0.000664800537
0.000664802426
0.000664804343
0.00066480627
0.000664808199
0.000664810113
0.000664812002
0.000664813852
0.000664815657
0.00066481723
0.000664817162
0.000664816875
0.000664816749
0.000664816766
0.000664816914
0.000664817176
0.000664817538
0.000664817992
0.000664818523
0.000664819121
0.000664819781
0.00066482049
0.00066482124
0.000664822029
0.000664822846
0.000664823687
0.000664824546
0.000664825423
0.000664826308
0.000664827203
0.000664828101
0.000664829001
0.000664829899
0.000664830797
0.000664831689
0.000664832573
0.000664833453
0.000664834321
0.000664835178
0.000664836027
0.000664836862
0.000664837683
0.000664838494
0.000664839289
0.000664840071
0.000664840836
0.00066484159
0.000664842328
0.000664843049
0.000664843759
0.000664844453
0.000664845131
0.000664845797
0.000664846454
0.000664847064
0.000664860981
0.00066480282
0.000664807228
0.000664797419
0.00066478818
0.000664781142
0.00066477738
0.000664777301
0.000664780748
0.000664787096
0.000664790009
0.0006647809
0.000664774339
0.000664770715
0.000664770049
0.000664772073
0.000664776333
0.000664782268
0.000664789266
0.000664796658
0.000664803662
0.000664809401
0.000664812284
0.000664809461
0.000664809284
0.00066480592
0.000664798357
0.000664789818
0.000664781631
0.00066477502
0.000664770914
0.000664769854
0.000664771996
0.000664777165
0.000664784944
0.000664794754
0.000664805905
0.000664817633
0.000664829115
0.000664839522
0.000664848091
0.000664854254
0.000664857775
0.000664858859
0.000664858183
0.000664856806
0.000664855973
0.000664856851
0.000664860282
0.000664866611
0.000664875664
0.000664886858
0.00066489941
0.000664912565
0.000664925766
0.000664938727
0.0006649514
0.000664963886
0.000664976326
0.000664988824
0.000665001418
0.000665014087
0.000665026781
0.000665039449
0.000665052053
0.000665064573
0.000665077001
0.00066508934
0.000665101586
0.000665113738
0.000665125798
0.00066513776
0.00066514962
0.000665161379
0.000665173028
0.000665184559
0.000665195964
0.000665207226
0.000665218328
0.000665229251
0.000665239967
0.000665250447
0.000665260659
0.000665270561
0.000665280108
0.000665289246
0.000665297914
0.000665293786
0.000665284662
0.000665274256
0.000665262537
0.000665249487
0.000665235103
0.000665219393
0.000665202392
0.000665184158
0.00066516477
0.000665144334
0.00066512299
0.000665100896
0.000665078237
0.000665055224
0.000665032073
0.000665009016
0.000664986286
0.000664964114
0.000664942709
0.000664922274
0.000664902974
0.000664884953
0.000664868318
0.000664853148
0.000664839482
0.00066482733
0.000664816679
0.000664807482
0.000664799676
0.000664793185
0.000664787914
0.000664783765
0.000664780636
0.000664778421
0.000664777016
0.000664776321
0.000664776245
0.000664776697
0.000664777594
0.000664778868
0.000664780447
0.000664782273
0.000664784297
0.000664786469
0.00066478875
0.00066479111
0.000664793516
0.000664795943
0.000664798373
0.000664800785
0.000664803162
0.000664805497
0.000664807777
0.000664809996
0.00066481215
0.000664814242
0.000664815132
0.000664814792
0.000664814626
0.000664814615
0.000664814743
0.000664814996
0.000664815356
0.000664815812
0.000664816353
0.000664816967
0.000664817643
0.000664818376
0.000664819154
0.000664819969
0.00066482082
0.000664821696
0.000664822594
0.000664823506
0.000664824434
0.000664825367
0.000664826308
0.00066482725
0.000664828191
0.000664829128
0.000664830063
0.00066483099
0.000664831908
0.000664832818
0.000664833717
0.000664834603
0.000664835479
0.000664836341
0.000664837188
0.000664838024
0.000664838843
0.000664839648
0.000664840436
0.000664841212
0.000664841971
0.000664842713
0.000664843443
0.000664844157
0.000664844854
0.000664845538
0.000664846215
0.000664846843
0.000664860797
0.000664802269
0.000664805479
0.000664794428
0.000664784129
0.000664776422
0.000664772493
0.000664772755
0.000664776977
0.000664784381
0.000664789866
0.00066477942
0.00066477172
0.000664767232
0.000664766021
0.000664767833
0.000664772197
0.000664778517
0.000664786134
0.000664794312
0.000664802171
0.000664808679
0.000664810113
0.000664806472
0.000664806138
0.000664804792
0.000664796087
0.000664786101
0.000664776296
0.000664768058
0.000664762465
0.000664760179
0.000664761428
0.000664766067
0.000664773673
0.000664783631
0.000664795196
0.000664807521
0.00066481968
0.000664830718
0.000664839744
0.000664846075
0.000664849404
0.000664849917
0.000664848338
0.000664845834
0.000664843799
0.000664843569
0.000664846126
0.00066485191
0.000664860769
0.000664872079
0.000664884971
0.00066489859
0.000664912296
0.00066492575
0.000664938887
0.000664951813
0.000664964688
0.000664977631
0.000664990691
0.000665003845
0.000665017042
0.000665030223
0.000665043348
0.000665056397
0.000665069363
0.000665082253
0.000665095064
0.000665107801
0.000665120468
0.000665133063
0.000665145585
0.000665158039
0.000665170417
0.000665182715
0.00066519493
0.000665207045
0.000665219045
0.000665230916
0.000665242629
0.000665254157
0.000665265469
0.000665276523
0.000665287273
0.000665297665
0.000665307638
0.000665304648
0.000665294978
0.000665283926
0.00066527145
0.000665257516
0.000665242112
0.000665225237
0.000665206918
0.000665187211
0.000665166195
0.000665143988
0.000665120743
0.00066509664
0.000665071893
0.000665046747
0.000665021461
0.00066499631
0.000664971571
0.00066494752
0.000664924408
0.000664902471
0.000664881904
0.00066486287
0.000664845487
0.000664829838
0.000664815953
0.00066480383
0.000664793437
0.000664784703
0.000664777538
0.00066477184
0.000664767485
0.000664764345
0.000664762296
0.000664761204
0.000664760947
0.000664761405
0.000664762472
0.000664764043
0.000664766025
0.00066476834
0.000664770912
0.000664773677
0.000664776584
0.000664779583
0.000664782632
0.000664785703
0.000664788763
0.00066479179
0.00066479477
0.000664797685
0.000664800524
0.000664803284
0.000664805954
0.00066480853
0.000664811008
0.000664812843
0.000664812785
0.000664812557
0.0006648125
0.000664812595
0.000664812825
0.000664813176
0.00066481363
0.000664814174
0.000664814801
0.000664815495
0.000664816247
0.000664817052
0.000664817897
0.000664818777
0.000664819687
0.000664820619
0.000664821569
0.000664822531
0.000664823505
0.000664824482
0.000664825465
0.000664826446
0.000664827424
0.000664828397
0.000664829366
0.000664830325
0.000664831273
0.000664832214
0.00066483314
0.000664834053
0.000664834955
0.000664835841
0.000664836711
0.000664837568
0.000664838409
0.000664839234
0.000664840042
0.000664840837
0.000664841614
0.000664842375
0.000664843122
0.000664843853
0.000664844568
0.000664845268
0.000664845963
0.000664846601
0.000664860573
0.0006648017
0.000664803676
0.000664791343
0.00066477994
0.000664771522
0.000664767388
0.000664767965
0.000664772958
0.000664781467
0.000664789757
0.000664777947
0.000664769075
0.000664763705
0.000664761948
0.000664763558
0.00066476804
0.000664774753
0.000664782976
0.000664791891
0.000664800523
0.000664807745
0.000664807081
0.00066480283
0.000664802309
0.000664803446
0.000664793517
0.00066478199
0.000664770495
0.000664760587
0.00066475349
0.000664749976
0.000664750338
0.000664754455
0.000664761892
0.000664771993
0.000664783948
0.00066479683
0.00066480962
0.000664821252
0.00066483072
0.00066483723
0.000664840386
0.00066484034
0.000664837852
0.000664834195
0.000664830926
0.000664829554
0.000664831217
0.000664836453
0.000664845135
0.000664856596
0.000664869881
0.000664884032
0.000664898319
0.000664912345
0.000664926023
0.000664939463
0.000664952839
0.000664966289
0.000664979866
0.000664993554
0.000665007293
0.000665021022
0.000665034698
0.0006650483
0.000665061824
0.00066507528
0.000665088672
0.000665102008
0.000665115298
0.000665128545
0.000665141753
0.00066515493
0.000665168076
0.000665181189
0.000665194267
0.000665207299
0.000665220271
0.000665233169
0.000665245967
0.000665258638
0.000665271153
0.00066528347
0.000665295543
0.000665307316
0.000665318729
0.000665317999
0.000665307852
0.000665296203
0.000665282995
0.00066526818
0.000665251728
0.000665233626
0.000665213887
0.000665192562
0.000665169731
0.000665145518
0.000665120092
0.00066509366
0.00066506647
0.000665038812
0.000665010995
0.00066498335
0.000664956212
0.000664929914
0.000664904758
0.000664881027
0.000664858949
0.000664838713
0.000664820449
0.00066480424
0.000664790108
0.000664778031
0.000664767952
0.00066475977
0.00066475336
0.000664748585
0.000664745286
0.000664743304
0.000664742481
0.000664742658
0.000664743688
0.000664745429
0.000664747759
0.000664750559
0.000664753725
0.000664757171
0.000664760816
0.000664764591
0.000664768444
0.000664772323
0.000664776189
0.000664780014
0.000664783768
0.000664787432
0.000664790993
0.000664794435
0.000664797748
0.000664800932
0.000664803978
0.000664806889
0.00066480959
0.00066481012
0.000664809874
0.000664809818
0.000664809924
0.000664810174
0.000664810548
0.000664811036
0.000664811618
0.000664812282
0.000664813021
0.00066481382
0.000664814669
0.000664815565
0.000664816496
0.000664817456
0.000664818441
0.000664819444
0.00066482046
0.000664821484
0.000664822516
0.000664823548
0.000664824581
0.00066482561
0.000664826634
0.000664827649
0.000664828657
0.000664829654
0.000664830637
0.000664831611
0.000664832569
0.000664833512
0.000664834442
0.000664835355
0.000664836251
0.000664837134
0.000664837999
0.000664838847
0.000664839678
0.000664840494
0.000664841293
0.000664842073
0.00066484284
0.00066484359
0.000664844322
0.00066484504
0.000664845752
0.000664846405
0.00066486041
0.000664801112
0.000664801813
0.000664788161
0.000664775627
0.000664766482
0.000664762142
0.000664763046
0.000664768824
0.000664778443
0.000664789615
0.00066477647
0.0006647664
0.000664760116
0.000664757782
0.000664759163
0.000664763749
0.000664770856
0.000664779708
0.000664789414
0.000664798895
0.000664806876
0.000664803684
0.000664798797
0.000664798072
0.000664801491
0.000664790992
0.000664777906
0.00066476468
0.000664753036
0.000664744357
0.000664739531
0.000664738927
0.000664742457
0.000664749677
0.000664759898
0.000664772248
0.000664785716
0.000664799172
0.000664811425
0.000664821337
0.000664828001
0.000664830946
0.000664830307
0.00066482689
0.000664822079
0.000664817585
0.000664815088
0.000664815878
0.000664820587
0.000664829118
0.000664840764
0.000664854479
0.000664869202
0.000664884115
0.000664898759
0.000664913024
0.000664927021
0.00066494094
0.000664954933
0.000664969063
0.000664983312
0.000664997616
0.000665011909
0.000665026145
0.000665040302
0.000665054381
0.000665068396
0.000665082357
0.000665096278
0.000665110176
0.000665124058
0.000665137936
0.000665151821
0.000665165718
0.00066517963
0.000665193558
0.000665207494
0.000665221428
0.000665235348
0.000665249232
0.000665263054
0.000665276788
0.000665290394
0.00066530383
0.000665317041
0.000665329968
0.000665332788
0.000665322242
0.000665310074
0.000665296203
0.000665280559
0.000665263087
0.000665243752
0.00066522255
0.000665199518
0.000665174731
0.000665148316
0.000665120459
0.000665091396
0.000665061415
0.000665030861
0.000665000106
0.000664969553
0.000664939611
0.000664910685
0.000664883145
0.000664857332
0.000664833519
0.000664811923
0.00066479269
0.000664775899
0.00066476156
0.000664749623
0.000664739997
0.000664732539
0.000664727083
0.000664723445
0.000664721425
0.000664720822
0.000664721443
0.000664723096
0.000664725606
0.000664728809
0.000664732564
0.000664736737
0.000664741214
0.000664745901
0.000664750711
0.000664755575
0.000664760439
0.000664765251
0.000664769974
0.000664774582
0.000664779051
0.000664783362
0.00066478751
0.000664791484
0.000664795281
0.000664798905
0.000664802353
0.000664805632
0.000664807249
0.000664806995
0.000664806938
0.000664807059
0.000664807333
0.000664807742
0.000664808266
0.000664808895
0.00066480961
0.000664810399
0.000664811254
0.000664812162
0.000664813113
0.000664814104
0.000664815123
0.000664816165
0.000664817227
0.000664818301
0.000664819383
0.000664820469
0.000664821559
0.000664822645
0.000664823729
0.000664824806
0.000664825874
0.00066482693
0.000664827978
0.000664829012
0.00066483003
0.000664831037
0.000664832026
0.000664832998
0.000664833956
0.000664834895
0.000664835816
0.000664836722
0.000664837609
0.000664838479
0.000664839329
0.000664840165
0.000664840982
0.000664841781
0.000664842565
0.000664843332
0.000664844081
0.000664844815
0.000664845543
0.000664846207
0.000664860232
0.000664800502
0.000664799886
0.000664784878
0.000664771182
0.00066476129
0.000664756733
0.000664757959
0.000664764528
0.000664775271
0.000664788549
0.000664775007
0.00066476371
0.000664756491
0.000664753569
0.000664754721
0.00066475942
0.000664766938
0.000664776437
0.000664786941
0.00066479726
0.000664805997
0.000664799755
0.000664794158
0.000664793177
0.000664797655
0.000664788303
0.0006647736
0.000664758588
0.000664745162
0.000664734855
0.000664728677
0.000664727071
0.000664729978
0.00066473695
0.000664747258
0.000664759967
0.000664773981
0.000664788066
0.000664800917
0.000664811271
0.000664818104
0.000664820859
0.000664819641
0.000664815294
0.000664809312
0.000664803568
0.000664799922
0.000664799823
0.000664804008
0.000664812407
0.000664824274
0.000664838475
0.000664853841
0.000664869457
0.000664884802
0.000664899734
0.000664914364
0.000664928894
0.00066494349
0.000664958223
0.000664973073
0.000664987974
0.000665002852
0.00066501766
0.000665032376
0.000665047006
0.000665061571
0.000665076087
0.000665090578
0.000665105068
0.000665119573
0.00066513411
0.000665148701
0.000665163355
0.00066517808
0.000665192882
0.000665207755
0.000665222693
0.000665237686
0.000665252713
0.000665267753
0.000665282781
0.000665297761
0.000665312655
0.000665327412
0.000665341977
0.000665349907
0.000665339079
0.000665326495
0.000665312046
0.000665295632
0.000665277167
0.000665256586
0.000665233856
0.000665208993
0.00066518206
0.000665153184
0.000665122567
0.000665090473
0.000665057244
0.000665023289
0.000664989061
0.000664955054
0.000664921774
0.000664889721
0.000664859354
0.000664831085
0.000664805245
0.000664782088
0.000664761771
0.000664744372
0.000664729873
0.00066471819
0.000664709183
0.000664702656
0.000664698386
0.000664696134
0.000664695645
0.00066469667
0.000664698974
0.000664702327
0.000664706523
0.000664711374
0.00066471672
0.000664722411
0.000664728324
0.00066473436
0.000664740427
0.000664746455
0.000664752391
0.000664758187
0.000664763809
0.000664769236
0.000664774447
0.000664779431
0.000664784184
0.0006647887
0.000664792978
0.000664797028
0.000664800846
0.000664803269
0.000664803439
0.000664803435
0.000664803614
0.000664803958
0.000664804441
0.000664805045
0.000664805752
0.00066480655
0.000664807423
0.000664808359
0.000664809351
0.000664810385
0.000664811454
0.000664812554
0.000664813674
0.000664814809
0.000664815959
0.000664817113
0.000664818271
0.000664819427
0.000664820581
0.000664821727
0.000664822868
0.000664823996
0.000664825113
0.000664826215
0.000664827305
0.000664828378
0.000664829434
0.000664830475
0.000664831497
0.0006648325
0.000664833487
0.000664834454
0.000664835402
0.000664836333
0.000664837244
0.000664838136
0.000664839009
0.000664839865
0.000664840703
0.00066484152
0.000664842323
0.000664843107
0.000664843874
0.000664844623
0.000664845367
0.000664846045
0.000664860099
0.00066479987
0.000664797893
0.000664781489
0.000664766603
0.000664755945
0.000664751164
0.000664752715
0.000664760083
0.000664771961
0.000664786536
0.00066477356
0.000664761012
0.000664752836
0.000664749308
0.000664750224
0.000664755036
0.000664762977
0.000664773142
0.00066478447
0.000664795659
0.000664804446
0.000664795336
0.000664789003
0.000664787749
0.000664792463
0.000664785611
0.00066476924
0.00066475238
0.000664737101
0.000664725095
0.000664717493
0.000664714819
0.00066471705
0.000664723733
0.000664734102
0.000664747159
0.000664761718
0.000664776435
0.000664789875
0.000664800645
0.000664807607
0.000664810125
0.000664808282
0.000664802971
0.000664795798
0.000664788797
0.000664784007
0.000664783034
0.000664786718
0.000664795023
0.000664807162
0.000664821911
0.000664837993
0.00066485439
0.000664870514
0.000664886191
0.000664901529
0.000664916738