/*--------------------------------*- C++ -*----------------------------------*\
| =========                 |                                                 |
| \\      /  F ield         | OpenFOAM: The Open Source CFD Toolbox           |
|  \\    /   O peration     | Version:  v2012                                 |
|   \\  /    A nd           | Website:  www.openfoam.com                      |
|    \\/     M anipulation  |                                                 |
\*---------------------------------------------------------------------------*/
FoamFile
{
    version     2.0;
    format      ascii;
    class       surfaceVectorField;
    location    "2.79";
    object      Uf;
}
// * * * * * * * * * * * * * * * * * * * * * * * * * * * * * * * * * * * * * //

dimensions      [0 1 -1 0 0 0 0];


internalField   nonuniform List<vector> 
56481
(
(0.100008365 -2.48793427e-05 0)
(0.100001516 -1.99943485e-05 0)
(0.100030494 -5.00501928e-05 0)
(0.100014458 -6.01493412e-05 0)
(0.1000651 -7.10726633e-05 0)
(0.100042068 -9.82522589e-05 0)
(0.100108872 -8.20816914e-05 0)
(0.100083358 -0.000125687056 0)
(0.100156782 -7.92143464e-05 0)
(0.100133108 -0.000134992182 0)
(0.100203099 -6.18935978e-05 0)
(0.100184891 -0.000123133938 0)
(0.100242227 -3.21417544e-05 0)
(0.10023263 -9.13899944e-05 0)
(0.100269063 7.03835296e-06 0)
(0.100270802 -4.36902879e-05 0)
(0.10028453 5.18602374e-05 0)
(0.100296309 1.40170121e-05 0)
(0.100289519 9.66344593e-05 0)
(0.100308204 7.38391802e-05 0)
(0.100283145 0.000135948816 0)
(0.100306265 0.000130526264 0)
(0.100266501 0.000166513564 0)
(0.100291706 0.000178099489 0)
(0.100241808 0.000186296675 0)
(0.100266902 0.000212807621 0)
(0.100211882 0.000194482684 0)
(0.100234898 0.000232603265 0)
(0.100179655 0.000191452862 0)
(0.100198995 0.000237253382 0)
(0.100147889 0.000178466162 0)
(0.100162417 0.000227901189 0)
(0.100119011 0.000157352487 0)
(0.100128101 0.000206550617 0)
(0.100094998 0.000130438389 0)
(0.100098576 0.00017578418 0)
(0.10007723 0.000100715489 0)
(0.100075857 0.000138886488 0)
(0.100066266 7.20057828e-05 0)
(0.100061231 0.000100201849 0)
(0.100061597 4.87728616e-05 0)
(0.10005491 6.52441373e-05 0)
(0.100061451 3.54047737e-05 0)
(0.100055684 4.01638731e-05 0)
(0.100062565 3.52492677e-05 0)
(0.100060753 3.06606594e-05 0)
(0.100060811 4.97763418e-05 0)
(0.100065976 4.02339909e-05 0)
(0.100051953 7.81391181e-05 0)
(0.100066498 6.95969539e-05 0)
(0.100032165 0.000117353088 0)
(0.100057472 0.000116065663 0)
(0.0999987956 0.000162942147 0)
(0.100034951 0.000174366032 0)
(0.0999507042 0.000209812322 0)
(0.0999965774 0.000237791438 0)
(0.0998882433 0.000253133302 0)
(0.0999417536 0.000299512929 0)
(0.0998129915 0.000288974963 0)
(0.0998715219 0.000353661916 0)
(0.0997273564 0.000314637967 0)
(0.0997882067 0.000395957463 0)
(0.0996341627 0.000328748918 0)
(0.0996949168 0.000423912808 0)
(0.0995363164 0.000331208124 0)
(0.0995950728 0.000436748553 0)
(0.0994365769 0.0003230642 0)
(0.0994920511 0.000435162691 0)
(0.0993374106 0.000306366713 0)
(0.0993889507 0.000421089996 0)
(0.0992408645 0.0002840162 0)
(0.0992884311 0.000397524349 0)
(0.0991484048 0.000259593251 0)
(0.0991925524 0.000368401814 0)
(0.0990606991 0.000237117187 0)
(0.0991025709 0.000338466314 0)
(0.0989773778 0.000220686279 0)
(0.0990186967 0.000312995157 0)
(0.0988968784 0.000213991933 0)
(0.0989398801 0.000297283278 0)
(0.0988165049 0.000219755972 0)
(0.0988637456 0.000295876259 0)
(0.098732797 0.000239189605 0)
(0.0987867923 0.000311676851 0)
(0.0986421653 0.000271611265 0)
(0.0987049067 0.000345171403 0)
(0.0985416119 0.000314382876 0)
(0.0986141005 0.000394064647 0)
(0.098429316 0.000363286739 0)
(0.0985112865 0.000453536432 0)
(0.0983049316 0.000413331542 0)
(0.0983948812 0.000517151516 0)
(0.0981695428 0.000459796315 0)
(0.0982650691 0.000578221629 0)
(0.0980253203 0.000499201509 0)
(0.0981236595 0.000631236059 0)
(0.0978749878 0.000529904859 0)
(0.0979735832 0.000672930092 0)
(0.0977212508 0.000552152841 0)
(0.0978181875 0.000702676848 0)
(0.0975663401 0.000567617993 0)
(0.097660539 0.000722126841 0)
(0.0974117677 0.000578631591 0)
(0.0975029273 0.000734285271 0)
(0.097258325 0.000587404135 0)
(0.0973466773 0.000742396898 0)
(0.0971062656 0.000595484619 0)
(0.0971922627 0.000749028696 0)
(0.0969555728 0.000603575767 0)
(0.0970396162 0.000755604922 0)
(0.0968062035 0.000611667415 0)
(0.0968884879 0.000762434049 0)
(0.0966582389 0.000619344114 0)
(0.0967387209 0.00076907702 0)
(0.096511924 0.000626100615 0)
(0.0965903815 0.000774819524 0)
(0.0963676269 0.000631549579 0)
(0.0964437522 0.000779042981 0)
(0.0962257641 0.00063548799 0)
(0.0962992434 0.000781396171 0)
(0.0960867355 0.000637857211 0)
(0.096157292 0.000781783471 0)
(0.0959508895 0.000638660607 0)
(0.09601829 0.000780253614 0)
(0.0958185177 0.000637893137 0)
(0.0958825591 0.000776879532 0)
(0.0956898675 0.0006355079 0)
(0.095750359 0.000771684415 0)
(0.095565159 0.00063141681 0)
(0.0956219096 0.000764623959 0)
(0.0954445977 0.000625508503 0)
(0.0954974125 0.000755605137 0)
(0.0953283812 0.000617667025 0)
(0.0953770628 0.000744514823 0)
(0.0952167014 0.00060778314 0)
(0.095261053 0.000731240581 0)
(0.0951097457 0.000595758008 0)
(0.0951495743 0.000715678931 0)
(0.0950076989 0.000581502841 0)
(0.0950428159 0.00069773512 0)
(0.094910746 0.000564938096 0)
(0.0949409684 0.000677320496 0)
(0.0948190769 0.000545994011 0)
(0.0948442267 0.000654351432 0)
(0.0947328903 0.000524612702 0)
(0.0947527951 0.000628750765 0)
(0.0946523983 0.000500751213 0)
(0.0946668917 0.000600450965 0)
(0.0945778302 0.000474384783 0)
(0.0945867523 0.000569397773 0)
(0.0945094389 0.000445509745 0)
(0.0945126357 0.000535553424 0)
(0.0944475082 0.000414145507 0)
(0.0944448286 0.000498898749 0)
(0.0943923694 0.000380332993 0)
(0.0943836555 0.000459432999 0)
(0.094344446 0.000344126036 0)
(0.0943294889 0.000417163714 0)
(0.0943043699 0.000305543973 0)
(0.0942827908 0.000372076481 0)
(0.0942725406 0.00026454054 0)
(0.0942440312 0.00032397915 0)
(0.0942492574 0.000221018783 0)
(0.0942135417 0.000272716458 0)
(0.094234657 0.000174875347 0)
(0.0941915345 0.000218481391 0)
(0.0942287367 0.000126108733 0)
(0.0941781726 0.000161332979 0)
(0.0942312194 7.48973325e-05 0)
(0.094173642 0.000101578123 0)
(0.0942413495 2.20339708e-05 0)
(0.0941781966 3.98195623e-05 0)
(0.0942590566 -3.08586853e-05 0)
(0.094191703 -2.40597762e-05 0)
(0.0942895734 -8.34628919e-05 0)
(0.0942153449 -8.89356631e-05 0)
(0.0943320694 -0.000136786866 0)
(0.0942509849 -0.000154283401 0)
(0.0943865267 -0.00019108524 0)
(0.0942988332 -0.000220850739 0)
(0.0944528894 -0.000246099304 0)
(0.0943587118 -0.000288325286 0)
(0.0945311233 -0.000301525092 0)
(0.0944307413 -0.000356374462 0)
(0.0946211703 -0.000357016336 0)
(0.0945150379 -0.000424643263 0)
(0.0947228978 -0.000412149574 0)
(0.0946115503 -0.000492653158 0)
(0.094836083 -0.000466455765 0)
(0.0947201298 -0.000559847032 0)
(0.0949603993 -0.000519440196 0)
(0.0948405388 -0.000625625834 0)
(0.0950954034 -0.000570585747 0)
(0.0949724154 -0.000689354689 0)
(0.0952405293 -0.000619359113 0)
(0.0951152612 -0.000750372598 0)
(0.0953950887 -0.000665222812 0)
(0.0952684433 -0.000808009132 0)
(0.0955582769 -0.00070765081 0)
(0.0954311953 -0.000861603077 0)
(0.0957291804 -0.000746146496 0)
(0.0956026227 -0.000910522679 0)
(0.0959067881 -0.000780261138 0)
(0.0957817124 -0.000954186863 0)
(0.0960900042 -0.000809610707 0)
(0.0959673456 -0.000992085621 0)
(0.096277664 -0.000833889275 0)
(0.0961583138 -0.0010237978 0)
(0.096468552 -0.000852878274 0)
(0.0963533386 -0.00104900519 0)
(0.0966614221 -0.000866451548 0)
(0.096551094 -0.00106750216 0)
(0.0968550206 -0.000874576699 0)
(0.0967502316 -0.00107920085 0)
(0.0970481094 -0.000877313232 0)
(0.0969494078 -0.00108413179 0)
(0.0972394887 -0.000874808045 0)
(0.0971473098 -0.00108244032 0)
(0.0974280193 -0.000867288564 0)
(0.0973426818 -0.00107437928 0)
(0.097612641 -0.000855053816 0)
(0.0975343472 -0.00106029827 0)
(0.0977923885 -0.000838463776 0)
(0.0977212286 -0.00104063031 0)
(0.0979664034 -0.000817927388 0)
(0.0979023625 -0.00101587644 0)
(0.0981339423 -0.000793889787 0)
(0.0980769102 -0.000986589131 0)
(0.0982943811 -0.000766819384 0)
(0.098244164 -0.000953355322 0)
(0.0984472159 -0.000737195283 0)
(0.0984035492 -0.000916779891 0)
(0.0985920613 -0.000705495584 0)
(0.0985546228 -0.000877470113 0)
(0.0987286447 -0.000672186998 0)
(0.0986970685 -0.000836021739 0)
(0.0988568003 -0.00063771592 0)
(0.0988306888 -0.000793007023 0)
(0.0989764597 -0.000602501102 0)
(0.0989553962 -0.000748964842 0)
(0.0990876428 -0.000566927954 0)
(0.0990712019 -0.000704393016 0)
(0.0991904469 -0.000531344383 0)
(0.0991782042 -0.00065974277 0)
(0.0992850372 -0.000496058254 0)
(0.0992765767 -0.00061541522 0)
(0.0993716359 -0.000461336339 0)
(0.0993665566 -0.000571759657 0)
(0.0994505122 -0.000427404722 0)
(0.0994484331 -0.000529073438 0)
(0.0995219726 -0.000394449913 0)
(0.0995225368 -0.000487603223 0)
(0.0995863519 -0.000362619808 0)
(0.0995892295 -0.000447547008 0)
(0.0996440056 -0.000332024737 0)
(0.0996488956 -0.000409056736 0)
(0.0996953056 -0.000302740066 0)
(0.099701935 -0.00037224186 0)
(0.0997406362 -0.000274811318 0)
(0.0997487583 -0.000337173954 0)
(0.099780388 -0.000248259853 0)
(0.0997897811 -0.00030389173 0)
(0.0998149518 -0.000223085832 0)
(0.0998254195 -0.000272405769 0)
(0.0998447156 -0.000199269291 0)
(0.0998560845 -0.000242703192 0)
(0.0998700651 -0.000176773839 0)
(0.0998821793 -0.000214752295 0)
(0.0998913828 -0.000155554138 0)
(0.099904097 -0.000188507187 0)
(0.0999090434 -0.000135562639 0)
(0.0999222208 -0.000163912913 0)
(0.0999234094 -0.000116752463 0)
(0.0999369199 -0.000140911406 0)
(0.0999348315 -9.90796669e-05 0)
(0.0999485464 -0.000119446636 0)
(0.0999436482 -8.25090245e-05 0)
(0.0999574339 -9.9467366e-05 0)
(0.0999501816 -6.70223407e-05 0)
(0.0999638952 -8.09299253e-05 0)
(0.0999547279 -5.26261126e-05 0)
(0.0999682149 -6.38017598e-05 0)
(0.0999575349 -3.93538232e-05 0)
(0.0999706399 -4.80545565e-05 0)
(0.0999587687 -2.72547423e-05 0)
(0.0999713752 -3.36521513e-05 0)
(0.0999585021 -1.6360527e-05 0)
(0.0999705844 -2.05555851e-05 0)
(0.0999567252 -6.60460874e-06 0)
(0.0999683731 -8.70121838e-06 0)
(0.0999534658 2.20958853e-06 0)
(0.0999647988 1.94433395e-06 0)
(0.0999493577 1.01652439e-05 0)
(0.0999600997 1.1537644e-05 0)
(0.0999443108 1.72320921e-05 0)
(0.0999545433 2.02309854e-05 0)
(0.0999383681 2.34738793e-05 0)
(0.0999481692 2.7935987e-05 0)
(0.0999316107 2.89856832e-05 0)
(0.0999410097 3.47413682e-05 0)
(0.0999241341 3.38435768e-05 0)
(0.0999331607 4.07290059e-05 0)
(0.0999160324 3.81126022e-05 0)
(0.099924716 4.59763708e-05 0)
(0.0999073943 4.18525854e-05 0)
(0.0999157577 5.05564166e-05 0)
(0.0998983037 4.51174246e-05 0)
(0.0999063639 5.45355294e-05 0)
(0.0998888386 4.79547512e-05 0)
(0.0998966093 5.79731955e-05 0)
(0.0998790714 5.04062783e-05 0)
(0.0998865629 6.09226074e-05 0)
(0.099869068 5.25082141e-05 0)
(0.0998762884 6.34310808e-05 0)
(0.0998588876 5.42917756e-05 0)
(0.099865843 6.55404376e-05 0)
(0.0998485825 5.5783916e-05 0)
(0.0998552782 6.72875366e-05 0)
(0.0998381986 5.70082232e-05 0)
(0.0998446395 6.87049653e-05 0)
(0.0998277754 5.79858311e-05 0)
(0.0998339666 6.98218027e-05 0)
(0.0998173469 5.87361902e-05 0)
(0.0998232941 7.0664336e-05 0)
(0.0998069423 5.92775978e-05 0)
(0.0998126517 7.12566403e-05 0)
(0.0997965866 5.96274838e-05 0)
(0.0998020651 7.16209846e-05 0)
(0.0997863016 5.98025096e-05 0)
(0.0997915565 7.17780848e-05 0)
(0.0997761061 5.98185587e-05 0)
(0.0997811452 7.17472536e-05 0)
(0.0997660168 5.96906763e-05 0)
(0.0997708478 7.15464834e-05 0)
(0.0997560485 5.94329885e-05 0)
(0.0997606792 7.11924897e-05 0)
(0.0997462143 5.90586196e-05 0)
(0.099750652 7.07007295e-05 0)
(0.099736526 5.85796161e-05 0)
(0.0997407776 7.00854061e-05 0)
(0.0997269942 5.80068876e-05 0)
(0.0997310661 6.93594702e-05 0)
(0.099717628 5.7350178e-05 0)
(0.099721526 6.85346263e-05 0)
(0.0997084356 5.6618076e-05 0)
(0.0997121651 6.76213574e-05 0)
(0.099699424 5.58180709e-05 0)
(0.0997029897 6.66289753e-05 0)
(0.0996905993 5.49566534e-05 0)
(0.0996940056 6.55656992e-05 0)
(0.0996819663 5.4039439e-05 0)
(0.0996852173 6.44387485e-05 0)
(0.0996735293 5.30713173e-05 0)
(0.0996766285 6.32544278e-05 0)
(0.0996652912 5.20566124e-05 0)
(0.0996682423 6.20182581e-05 0)
(0.0996572547 5.09992204e-05 0)
(0.0996600609 6.07351038e-05 0)
(0.0996494218 4.99027062e-05 0)
(0.0996520861 5.94092628e-05 0)
(0.0996417943 4.87703435e-05 0)
(0.0996443194 5.80445169e-05 0)
(0.0996343738 4.7605121e-05 0)
(0.0996367617 5.66441171e-05 0)
(0.0996271623 4.64095593e-05 0)
(0.0996294152 5.52107765e-05 0)
(0.0996201625 4.51859921e-05 0)
(0.0996222784 5.37461999e-05 0)
(0.0996133779 4.39340769e-05 0)
(0.0996153642 5.22522247e-05 0)
(0.0996068143 4.26599137e-05 0)
(0.0996086371 5.07234201e-05 0)
(0.0996004784 4.13306298e-05 0)
(0.0996022358 4.91764535e-05 0)
(0.0995943952 4.00636494e-05 0)
(0.099595707 4.75105091e-05 0)
(0.0995885543 3.82842595e-05 0)
(0.0995907232 4.60953083e-05 0)
(0.0995819746 4.32031024e-05 0)
(0.100005797 -5.10646933e-05 0)
(0.100001395 -2.66693913e-05 0)
(0.100026267 -0.000102148404 0)
(0.100013706 -8.37213988e-05 0)
(0.10006124 -0.000145346949 0)
(0.100040908 -0.000138523615 0)
(0.100107915 -0.000170499306 0)
(0.100082731 -0.000179434399 0)
(0.100161115 -0.000170936747 0)
(0.100134122 -0.000196252627 0)
(0.100214445 -0.00014545737 0)
(0.100188441 -0.00018454428 0)
(0.100261644 -9.73984531e-05 0)
(0.100239414 -0.000145740263 0)
(0.100297831 -3.26661043e-05 0)
(0.100281641 -8.53604723e-05 0)
(0.100320116 4.08929777e-05 0)
(0.100311037 -1.16440005e-05 0)
(0.10032495 0.000114187674 0)
(0.100324918 6.82727402e-05 0)
(0.100314922 0.000179245565 0)
(0.100322934 0.000142073571 0)
(0.100292313 0.000230425263 0)
(0.100306982 0.000204133927 0)
(0.100260279 0.000264363003 0)
(0.100279837 0.000249694945 0)
(0.100222363 0.00027986116 0)
(0.100244889 0.000276264673 0)
(0.100182166 0.000277548883 0)
(0.100205766 0.000283540106 0)
(0.100143089 0.000259327988 0)
(0.100165999 0.000272899593 0)
(0.100108165 0.000227913822 0)
(0.100128813 0.000246765694 0)
(0.100079963 0.000186774147 0)
(0.100097019 0.000208259725 0)
(0.100060403 0.000140472124 0)
(0.100072893 0.000161409743 0)
(0.100050429 9.50073864e-05 0)
(0.100057946 0.000111687083 0)
(0.100049567 5.75934123e-05 0)
(0.100052544 6.6236964e-05 0)
(0.100055612 3.56058087e-05 0)
(0.10005552 3.3202426e-05 0)
(0.100064836 3.49525541e-05 0)
(0.100063979 2.00394528e-05 0)
(0.10007229 5.83950087e-05 0)
(0.100073398 3.16503412e-05 0)
(0.10007263 0.000104650402 0)
(0.100078337 6.92052232e-05 0)
(0.100060902 0.000168775575 0)
(0.100073499 0.000129570502 0)
(0.100033429 0.000243365719 0)
(0.100054579 0.000206001644 0)
(0.0999883586 0.000320064669 0)
(0.100018854 0.000289691245 0)
(0.0999257853 0.000391062678 0)
(0.0999654724 0.000371567038 0)
(0.099847509 0.000450182505 0)
(0.0998953905 0.000443798251 0)
(0.0997565539 0.000493390296 0)
(0.0998110206 0.000500693566 0)
(0.0996566209 0.000518821968 0)
(0.0997157165 0.000538987148 0)
(0.0995516007 0.000526521519 0)
(0.0996132593 0.000557680885 0)
(0.0994452108 0.000518097664 0)
(0.0995074392 0.000557672349 0)
(0.099340745 0.00049644977 0)
(0.0994017581 0.000541383904 0)
(0.0992408785 0.000465613382 0)
(0.0992992199 0.000512522112 0)
(0.0991474646 0.000430663666 0)
(0.0992021427 0.000475969368 0)
(0.0990613021 0.00039752971 0)
(0.099111944 0.000437683635 0)
(0.098981915 0.000372556636 0)
(0.0990288975 0.000404410608 0)
(0.0989074332 0.000361730917 0)
(0.0989519216 0.000383050229 0)
(0.0988346739 0.0003696414 0)
(0.0988785122 0.000379659699 0)
(0.0987594865 0.000398420884 0)
(0.0988049374 0.000398256249 0)
(0.0986773628 0.000447015454 0)
(0.0987267412 0.000439738135 0)
(0.0985842268 0.000511102948 0)
(0.0986394905 0.000501312067 0)
(0.098477229 0.000583815291 0)
(0.0985396036 0.000576746076 0)
(0.0983553174 0.000657152671 0)
(0.0984250517 0.000657534552 0)
(0.0982194029 0.000723714141 0)
(0.098295735 0.000734729133 0)
(0.0980720563 0.000778231227 0)
(0.0981534163 0.000800907963 0)
(0.0979168326 0.000818446124 0)
(0.0980012271 0.000851672522 0)
(0.0977574402 0.000845105103 0)
(0.0978428967 0.000886219547 0)
(0.0975970057 0.000861149742 0)
(0.0976819396 0.000906869651 0)
(0.097437632 0.000870456921 0)
(0.097521038 0.000917806404 0)
(0.0972803278 0.000876594519 0)
(0.0973617712 0.000923535129 0)
(0.0971252471 0.000881984809 0)
(0.0972047043 0.00092760645 0)
(0.0969720908 0.000887651063 0)
(0.0970497286 0.000931966683 0)
(0.0968204961 0.000893474864 0)
(0.0968964798 0.000936997646 0)
(0.0966702921 0.00089872288 0)
(0.0967446753 0.000942039157 0)
(0.0965215828 0.000902569721 0)
(0.0965942861 0.000946060453 0)
(0.0963746936 0.000904430628 0)
(0.0964455436 0.000948188177 0)
(0.0962300553 0.000904055187 0)
(0.0962988439 0.000947949282 0)
(0.0960880973 0.000901445815 0)
(0.0961546282 0.00094525033 0)
(0.0959491849 0.000896710366 0)
(0.0960132952 0.000940213264 0)
(0.0958136079 0.000889939533 0)
(0.0958751664 0.000932998505 0)
(0.0956815982 0.000881149064 0)
(0.0957404929 0.000923695522 0)
(0.0955533571 0.000870280212 0)
(0.0956094817 0.000912295546 0)
(0.0954290752 0.000857229181 0)
(0.0954823211 0.00089871769 0)
(0.095308942 0.000841877733 0)
(0.0953591957 0.000882849917 0)
(0.0951931487 0.000824110926 0)
(0.0952402919 0.000864578301 0)
(0.0950818875 0.000803821607 0)
(0.095125798 0.000843797962 0)
(0.0949753525 0.000780908201 0)
(0.0950159044 0.00082041167 0)
(0.0948737434 0.000755272117 0)
(0.0949108055 0.000794324993 0)
(0.0947772686 0.000726817716 0)
(0.0948107035 0.000765443635 0)
(0.0946861506 0.000695454839 0)
(0.0947158133 0.000733674403 0)
(0.0946006306 0.00066110255 0)
(0.0946263668 0.000698928596 0)
(0.094520972 0.000623692573 0)
(0.0945426171 0.000661125867 0)
(0.0944474656 0.000583171528 0)
(0.0944648422 0.00062019714 0)
(0.0943804347 0.000539501272 0)
(0.0943933491 0.000576085784 0)
(0.0943202415 0.000492654338 0)
(0.0943284774 0.000528746421 0)
(0.0942672889 0.000442601492 0)
(0.0942706009 0.000478139405 0)
(0.0942220016 0.000389261119 0)
(0.0942201238 0.000424225534 0)
(0.094184688 0.000332486942 0)
(0.0941774439 0.000366946301 0)
(0.0941555414 0.00027213692 0)
(0.0941428997 0.000306279164 0)
(0.0941348103 0.000208168227 0)
(0.0941168198 0.00024235361 0)
(0.0941228431 0.000140729995 0)
(0.0940995904 0.000175113346 0)
(0.0941203342 7.01744085e-05 0)
(0.0940916294 0.000104467232 0)
(0.0941285621 -3.00995377e-06 0)
(0.0940933202 3.03449224e-05 0)
(0.0941471023 -7.77273262e-05 0)
(0.0941051682 -4.54090648e-05 0)
(0.0941764533 -0.000153359598 0)
(0.0941277741 -0.000122733771 0)
(0.0942175453 -0.00023027714 0)
(0.0941618656 -0.000201601481 0)
(0.0942706908 -0.00030846874 0)
(0.0942081148 -0.000282048574 0)
(0.0943362343 -0.000387531963 0)
(0.0942668254 -0.00036379964 0)
(0.0944143662 -0.00046700937 0)
(0.0943382081 -0.000446344465 0)
(0.0945051385 -0.000546396215 0)
(0.0944224503 -0.000529168945 0)
(0.0946085098 -0.000625089684 0)
(0.09451962 -0.000611686767 0)
(0.09472433 -0.000702410707 0)
(0.094629658 -0.000693215707 0)
(0.0948523199 -0.000777630383 0)
(0.0947523848 -0.000773008137 0)
(0.0949920613 -0.000849984466 0)
(0.0948874812 -0.000850269042 0)
(0.0951429909 -0.000918691137 0)
(0.095034474 -0.000924170237 0)
(0.0953043974 -0.000982972906 0)
(0.0951927312 -0.000993871201 0)
(0.0954754245 -0.00104207935 0)
(0.0953614608 -0.00105854337 0)
(0.0956550775 -0.00109530994 0)
(0.0955397147 -0.00111739578 0)
(0.0958422348 -0.0011420364 0)
(0.095726397 -0.00116970133 0)
(0.096035664 -0.00118172354 0)
(0.0959202789 -0.00121482223 0)
(0.0962340417 -0.00121394714 0)
(0.0961200187 -0.00125223268 0)
(0.0964359778 -0.00123840817 0)
(0.0963241865 -0.00128153761 0)
(0.0966400427 -0.00125494219 0)
(0.0965312932 -0.00130248603 0)
(0.0968447971 -0.00126352375 0)
(0.0967398225 -0.00131497864 0)
(0.0970488218 -0.00126426535 0)
(0.0969482643 -0.00131906923 0)
(0.0972507468 -0.0012574112 0)
(0.0971551474 -0.00131496002 0)
(0.0974492786 -0.0012433264 0)
(0.0973590706 -0.00130299166 0)
(0.0976432232 -0.00122248217 0)
(0.0975587301 -0.00128362832 0)
(0.0978315046 -0.00119543826 0)
(0.0977529418 -0.00125743922 0)
(0.0980131793 -0.00116282352 0)
(0.0979406594 -0.00122507757 0)
(0.0981874445 -0.00112531563 0)
(0.0981209851 -0.00118725817 0)
(0.0983536426 -0.00108362112 0)
(0.0982931767 -0.00114473486 0)
(0.0985112601 -0.00103845636 0)
(0.0984566477 -0.00109827883 0)
(0.0986599238 -0.000990530196 0)
(0.0986109641 -0.00104865865 0)
(0.0987993931 -0.000940528913 0)
(0.0987558368 -0.000996622684 0)
(0.0989295496 -0.000889103539 0)
(0.0988911112 -0.000942884269 0)
(0.0990503861 -0.00083685978 0)
(0.0990167542 -0.000888109812 0)
(0.0991619928 -0.000784350619 0)
(0.0991328406 -0.000832909857 0)
(0.0992645448 -0.00073207133 0)
(0.0992395381 -0.000777832964 0)
(0.0993582883 -0.000680456795 0)
(0.0993370931 -0.0007233622 0)
(0.0994435276 -0.000629880702 0)
(0.0994258161 -0.000669913988 0)
(0.0995206135 -0.000580656465 0)
(0.0995060684 -0.000617838998 0)
(0.0995899321 -0.000533039326 0)
(0.09957825 -0.000567424733 0)
(0.0996518957 -0.000487229212 0)
(0.0996427887 -0.000518899026 0)
(0.0997069337 -0.000443374407 0)
(0.0997001301 -0.000472433776 0)
(0.0997554849 -0.000401576308 0)
(0.0997507296 -0.000428149295 0)
(0.0997979912 -0.000361895089 0)
(0.0997950461 -0.000386120637 0)
(0.0998348928 -0.000324355793 0)
(0.0998335364 -0.000346384385 0)
(0.0998666243 -0.000288954451 0)
(0.0998666506 -0.000308945117 0)
(0.0998936119 -0.000255663592 0)
(0.099894827 -0.00027377979 0)
(0.0999162676 -0.000224437039 0)
(0.0999184903 -0.00024084072 0)
(0.0999349865 -0.000195215284 0)
(0.0999380495 -0.000210062256 0)
(0.0999501459 -0.000167933024 0)
(0.0999538942 -0.000181369154 0)
(0.0999621036 -0.000142525941 0)
(0.0999663923 -0.00015468096 0)
(0.0999711947 -0.000118932163 0)
(0.0999758932 -0.000129915175 0)
(0.0999777276 -9.70922068e-05 0)
(0.0999827276 -0.000106990104 0)
(0.0999819768 -7.69523334e-05 0)
(0.0999872013 -8.58229018e-05 0)
(0.0999841779 -5.84638208e-05 0)
(0.0999895931 -6.6336389e-05 0)
(0.0999845348 -4.15740621e-05 0)
(0.0999901542 -4.84655305e-05 0)
(0.0999832379 -2.62205618e-05 0)
(0.0999891019 -3.21586664e-05 0)
(0.0999804812 -1.23231825e-05 0)
(0.0999866207 -1.73812204e-05 0)
(0.0999764761 2.44031615e-07 0)
(0.0999828695 -4.08932488e-06 0)
(0.0999713783 1.16477038e-05 0)
(0.0999779506 7.81451136e-06 0)
(0.0999653004 2.19419033e-05 0)
(0.0999719703 1.85365076e-05 0)
(0.0999584202 3.11044685e-05 0)
(0.0999651075 2.81535667e-05 0)
(0.0999508147 3.92000278e-05 0)
(0.0999575017 3.66938157e-05 0)
(0.0999425672 4.63300591e-05 0)
(0.0999492277 4.42385614e-05 0)
(0.0999337554 5.2583076e-05 0)
(0.0999403664 5.08758603e-05 0)
(0.0999244558 5.80389602e-05 0)
(0.0999310016 5.66850614e-05 0)
(0.0999147425 6.27732839e-05 0)
(0.0999212104 6.17414384e-05 0)
(0.0999046857 6.68558782e-05 0)
(0.0999110645 6.61160166e-05 0)
(0.0998943508 7.03500636e-05 0)
(0.0999006307 6.98739991e-05 0)
(0.0998837979 7.33129045e-05 0)
(0.0998899713 7.30744864e-05 0)
(0.0998730818 7.57956427e-05 0)
(0.0998791428 7.57707607e-05 0)
(0.0998622524 7.78441369e-05 0)
(0.0998681965 7.80106518e-05 0)
(0.0998513542 7.94993762e-05 0)
(0.0998571782 7.98369888e-05 0)
(0.0998404267 8.07980733e-05 0)
(0.0998461284 8.12881706e-05 0)
(0.0998295046 8.17732649e-05 0)
(0.0998350826 8.23987873e-05 0)
(0.0998186182 8.24548602e-05 0)
(0.0998240716 8.32002063e-05 0)
(0.0998077938 8.28701003e-05 0)
(0.099813122 8.37210728e-05 0)
(0.0997970543 8.30439219e-05 0)
(0.0998022571 8.39876963e-05 0)
(0.0997864194 8.29992373e-05 0)
(0.0997914965 8.40243306e-05 0)
(0.0997759062 8.27571454e-05 0)
(0.0997808575 8.38533693e-05 0)
(0.0997655294 8.23370865e-05 0)
(0.0997703549 8.3495479e-05 0)
(0.0997553018 8.1756953e-05 0)
(0.0997600016 8.29696899e-05 0)
(0.0997452345 8.1033168e-05 0)
(0.0997498089 8.22934596e-05 0)
(0.0997353368 8.01807452e-05 0)
(0.0997397863 8.14827235e-05 0)
(0.099725617 7.92133392e-05 0)
(0.0997299422 8.05519424e-05 0)
(0.0997160822 7.81432971e-05 0)
(0.0997202839 7.95141556e-05 0)
(0.0997067382 7.6981717e-05 0)
(0.0997108175 7.8381044e-05 0)
(0.0996975903 7.57385169e-05 0)
(0.0997015482 7.71630077e-05 0)
(0.0996886424 7.44225137e-05 0)
(0.0996924803 7.58692573e-05 0)
(0.0996798982 7.30414964e-05 0)
(0.0996836171 7.4507913e-05 0)
(0.0996713601 7.16023101e-05 0)
(0.0996749615 7.30861036e-05 0)
(0.0996630304 7.01109527e-05 0)
(0.0996665153 7.16100742e-05 0)
(0.0996549105 6.85726537e-05 0)
(0.09965828 7.00852846e-05 0)
(0.0996470016 6.69919269e-05 0)
(0.0996502565 6.85164815e-05 0)
(0.0996393046 6.53725742e-05 0)
(0.0996424455 6.69077394e-05 0)
(0.0996318202 6.37176819e-05 0)
(0.0996348471 6.52624348e-05 0)
(0.0996245494 6.20293529e-05 0)
(0.0996274625 6.35832814e-05 0)
(0.099617493 6.03092173e-05 0)
(0.0996202888 6.18717692e-05 0)
(0.0996106518 5.85547854e-05 0)
(0.0996133376 6.01299838e-05 0)
(0.0996040274 5.677341e-05 0)
(0.0996065701 5.83514414e-05 0)
(0.0995976148 5.49179696e-05 0)
(0.0996001245 5.65606729e-05 0)
(0.0995914203 5.31574744e-05 0)
(0.0995935338 5.46435393e-05 0)
(0.0995853544 5.07314092e-05 0)
(0.0995884974 5.30803459e-05 0)
(0.0995796071 4.99044705e-05 0)
(0.100007175 -6.21314491e-05 0)
(0.100001487 -3.49313855e-05 0)
(0.100028331 -0.000124514679 0)
(0.10001422 -0.000108082619 0)
(0.100063339 -0.000178130964 0)
(0.1000419 -0.000178836584 0)
(0.100109359 -0.000211177727 0)
(0.100084326 -0.000232426671 0)
(0.100161379 -0.000215784416 0)
(0.100136658 -0.00025615448 0)
(0.100213407 -0.000190235437 0)
(0.100192288 -0.00024445548 0)
(0.100259547 -0.000138130607 0)
(0.100244785 -0.00019887078 0)
(0.100294879 -6.68676242e-05 0)
(0.100288405 -0.00012604664 0)
(0.100316058 1.37569076e-05 0)
(0.100318512 -3.60316595e-05 0)
(0.100322964 9.42564491e-05 0)
(0.10033307 6.03202919e-05 0)
(0.100315166 0.000166640744 0)
(0.100332014 0.000151053805 0)
(0.100294728 0.000224379933 0)
(0.100316388 0.00022766873 0)
(0.100264717 0.000263421528 0)
(0.100288939 0.000284253015 0)
(0.100228618 0.000282248067 0)
(0.100253254 0.000317833308 0)
(0.100189977 0.000281389074 0)
(0.100213129 0.00032803549 0)
(0.100152149 0.000262806167 0)
(0.100172294 0.000316458951 0)
(0.100118132 0.000229385876 0)
(0.100134184 0.000285937116 0)
(0.100090444 0.000184873789 0)
(0.100101798 0.000240142684 0)
(0.100070953 0.000134274809 0)
(0.100077553 0.000183853147 0)
(0.1000606 8.42561631e-05 0)
(0.100063035 0.0001236092 0)
(0.100059068 4.29100008e-05 0)
(0.100058601 6.80009658e-05 0)
(0.100064496 1.85361064e-05 0)
(0.100062978 2.69517454e-05 0)
(0.100073207 1.77851101e-05 0)
(0.100073113 1.00090105e-05 0)
(0.100080081 4.4052482e-05 0)
(0.100084516 2.37353886e-05 0)
(0.100079848 9.65360668e-05 0)
(0.100091817 6.94732314e-05 0)
(0.100067849 0.000170153016 0)
(0.100089488 0.000143387033 0)
(0.100040711 0.000256650956 0)
(0.100072884 0.000237251775 0)
(0.0999967047 0.000346451991 0)
(0.100039061 0.000340365121 0)
(0.0999358393 0.000430438347 0)
(0.0999870396 0.000441654526 0)
(0.0998596861 0.000501255081 0)
(0.099917716 0.000531489854 0)
(0.0997709859 0.000553979763 0)
(0.0998335044 0.000602833183 0)
(0.0996731714 0.000586220946 0)
(0.0997378273 0.000651621997 0)
(0.0995699224 0.000597843333 0)
(0.0996345956 0.000676573708 0)
(0.0994648132 0.000590560629 0)
(0.099527775 0.000678707206 0)
(0.0993610553 0.00056759315 0)
(0.0994210648 0.000660862653 0)
(0.0992612953 0.00053347529 0)
(0.0993176613 0.000627397307 0)
(0.0991674159 0.00049395645 0)
(0.0992200439 0.00058407284 0)
(0.0990803104 0.000455820887 0)
(0.099129738 0.000537986944 0)
(0.0989996459 0.000426421595 0)
(0.0990470579 0.000497297046 0)
(0.0989237043 0.000412815538 0)
(0.0989708965 0.000470498099 0)
(0.0988494317 0.000420565247 0)
(0.0988986682 0.00046518572 0)
(0.0987727914 0.000452469115 0)
(0.0988265083 0.000486508732 0)
(0.0986894032 0.000507625019 0)
(0.0987497844 0.000535760929 0)
(0.0985953296 0.000581229403 0)
(0.098663862 0.000609639257 0)
(0.0984878125 0.000665328304 0)
(0.0985649612 0.000700553693 0)
(0.0983657768 0.000750428204 0)
(0.0984508831 0.000798060453 0)
(0.098229975 0.000827559039 0)
(0.0983214096 0.000891107016 0)
(0.0980827303 0.000890185442 0)
(0.0981782544 0.000970462429 0)
(0.0979273483 0.000935381355 0)
(0.0980245769 0.00103059734 0)
(0.0977673643 0.000963931494 0)
(0.0978642038 0.00107044349 0)
(0.0976058498 0.000979408192 0)
(0.0977007949 0.00109285607 0)
(0.0974449647 0.000986630784 0)
(0.0975371962 0.00110306803 0)
(0.0972858468 0.000990092813 0)
(0.0973751363 0.00110676181 0)
(0.0971288003 0.000992872597 0)
(0.0972152921 0.00110844788 0)
(0.0969736529 0.000996277271 0)
(0.0970576188 0.00111062129 0)
(0.0968201216 0.00100014896 0)
(0.0969017711 0.00111379128 0)
(0.0966680663 0.00100353324 0)
(0.0967474543 0.00111713312 0)
(0.0965175858 0.00100535651 0)
(0.0965946122 0.00111934102 0)
(0.0963689828 0.00100486419 0)
(0.096443447 0.00111930681 0)
(0.0962226639 0.00100174864 0)
(0.0962943316 0.00111643775 0)
(0.09607904 0.000996044972 0)
(0.0961476911 0.00111063538 0)
(0.0959384659 0.000987936539 0)
(0.0960039134 0.00110208653 0)
(0.0958012243 0.000977590518 0)
(0.0958633103 0.00109103432 0)
(0.0956675411 0.000965078463 0)
(0.0957261229 0.00107763376 0)
(0.09553761 0.000950374567 0)
(0.0955925465 0.0010619131 0)
(0.095411613 0.000933393376 0)
(0.0954627566 0.00104380525 0)
(0.0952897304 0.000914029673 0)
(0.0953369247 0.00102319951 0)
(0.0951721453 0.000892181379 0)
(0.0952152255 0.000999979367 0)
(0.0950590431 0.000867754622 0)
(0.0950978373 0.000974036805 0)
(0.0949506134 0.000840659514 0)
(0.0949849428 0.000945270114 0)
(0.0948470526 0.000810805211 0)
(0.0948767317 0.000913576914 0)
(0.0947485681 0.000778098371 0)
(0.0947734047 0.000878850066 0)
(0.094655383 0.000742445161 0)
(0.094675178 0.000840978358 0)
(0.0945677405 0.000703755076 0)
(0.0945822879 0.000799850293 0)
(0.0944859069 0.000661944616 0)
(0.0944949949 0.000755358489 0)
(0.0944101755 0.000616939736 0)
(0.0944135863 0.000707403045 0)
(0.0943408689 0.000568676549 0)
(0.0943383791 0.000655893394 0)
(0.0942783405 0.00051709948 0)
(0.0942697207 0.00060074879 0)