/*--------------------------------*- C++ -*----------------------------------*\
| =========                 |                                                 |
| \\      /  F ield         | OpenFOAM: The Open Source CFD Toolbox           |
|  \\    /   O peration     | Version:  v2012                                 |
|   \\  /    A nd           | Website:  www.openfoam.com                      |
|    \\/     M anipulation  |                                                 |
\*---------------------------------------------------------------------------*/
FoamFile
{
    version     2.0;
    format      ascii;
    class       volScalarField;
    location    "2.19";
    object      p;
}
// * * * * * * * * * * * * * * * * * * * * * * * * * * * * * * * * * * * * * //

dimensions      [0 2 -2 0 0 0 0];


internalField   nonuniform List<scalar> 
28416
(
0.00393986169
0.0039412634
0.00394432
0.0039489204
0.00395492095
0.00396230949
0.00397117994
0.00398103714
0.00399198259
0.00400428481
0.00401796314
0.00403305473
0.00404955347
0.00406741525
0.00408657376
0.00410693157
0.0041284256
0.0041501743
0.00417304269
0.00419691999
0.00422163026
0.00424709173
0.00427322267
0.00429991979
0.00432707402
0.0043545727
0.00438230152
0.00441015092
0.00443801801
0.00446580128
0.0044933911
0.00452066245
0.00454747508
0.00457367864
0.00459911888
0.00462364158
0.00464709398
0.00466932621
0.0046901944
0.00470956217
0.00472730136
0.004743292
0.00475742187
0.00476958594
0.00477968629
0.00478763256
0.00479334298
0.00479674536
0.00479777819
0.0047963913
0.00479254632
0.00478621687
0.00477738871
0.00476605975
0.00475223998
0.00473595133
0.00471722733
0.00469611273
0.00467266292
0.00464694327
0.00461902833
0.004589001
0.00455695152
0.0045229765
0.00448717777
0.00444966131
0.00441053605
0.00436991267
0.00432790243
0.00428461598
0.00424016227
0.0041946475
0.00414817442
0.00410084256
0.00405275397
0.00400401781
0.00395474887
0.00390506974
0.00385516575
0.00380496479
0.00375448856
0.00370382337
0.00365301105
0.00360209341
0.00355111546
0.0035001166
0.0034491297
0.00339818346
0.00334730313
0.00329651069
0.00324582537
0.00319526444
0.00314484374
0.00309457828
0.00304448268
0.00299457162
0.00294486019
0.00289536415
0.00284610013
0.00279708571
0.00274833943
0.00269988074
0.00265172989
0.00260390775
0.00255643555
0.00250933468
0.00246262643
0.00241633172
0.00237047082
0.00232506319
0.00228012718
0.00223567992
0.0021917372
0.00214831331
0.00210542109
0.0020630719
0.0020212758
0.00198004177
0.00193937832
0.0018992945
0.00185979647
0.00182088498
0.00178255699
0.00174480697
0.00170762765
0.00167101054
0.00163494628
0.00159942498
0.00156443641
0.00152997011
0.00149601562
0.0014625628
0.00142960252
0.00139712683
0.00136512703
0.00133359337
0.00130251426
0.00127187516
0.00124165704
0.00121183508
0.0011823785
0.00115324977
0.00112439301
0.00109574636
0.00106746948
0.00103955043
0.00101195555
0.00098466571
0.000957672204
0.000930969354
0.000904550516
0.000878407947
0.00085253387
0.000826920396
0.000801559104
0.000776441121
0.000751557391
0.000726898832
0.000702456448
0.000678221404
0.000654185061
0.000630338987
0.000606674959
0.000583184961
0.000559861172
0.000536695961
0.000513681873
0.000490811612
0.000468078033
0.000445474133
0.000422993037
0.000400627983
0.000378372333
0.000356219543
0.00033416317
0.000312196866
0.000290314362
0.000268509464
0.000246776056
0.00022510809
0.000203499573
0.000181944555
0.000160437136
0.000138971379
0.000117541501
9.61411141e-05
7.47655997e-05
5.34032403e-05
3.20628636e-05
1.06642235e-05
0.00393435086
0.00393550111
0.00393834886
0.00394287648
0.00394886449
0.00395623703
0.0039649895
0.00397493577
0.00398647212
0.00399926626
0.00401337499
0.00402879252
0.0040454946
0.00406344153
0.00408257105
0.00410279219
0.00412391868
0.00414650103
0.00416983922
0.0041940262
0.00421902132
0.00424473901
0.00427109704
0.00429800602
0.00432536979
0.00435308933
0.00438106153
0.00440917831
0.00443732671
0.00446538821
0.00449323748
0.00452074086
0.00454775645
0.00457413879
0.00459974115
0.00462441607
0.00464801659
0.00467039787
0.00469141885
0.00471094355
0.0047288419
0.00474499037
0.00475927249
0.00477157926
0.00478180969
0.00478987147
0.00479568165
0.00479916745
0.00480026695
0.00479892966
0.00479511701
0.00478880266
0.00477997264
0.00476862546
0.004754772
0.00473843527
0.00471965016
0.00469846287
0.0046749304
0.0046491198
0.00462110735
0.00459097771
0.00455882284
0.00452474104
0.00448883578
0.00445121462
0.00441198807
0.00437126847
0.00432916891
0.00428580223
0.0042412801
0.00419571233
0.00414920656
0.00410186876
0.0040538062
0.00400512791
0.00395594752
0.00390639921
0.00385639088
0.00380615409
0.00375570326
0.0037050804
0.0036543323
0.00360349984
0.00355262106
0.00350173052
0.00345085788
0.00340002841
0.00334926382
0.00329858271
0.00324800108
0.00319753312
0.00314719182
0.00309698968
0.00304693921
0.00299705344
0.00294734632
0.00289783305
0.00284853019
0.00279945582
0.00275062947
0.00270207203
0.00265380554
0.00260585295
0.00255823781
0.00251098397
0.00246411522
0.00241765494
0.00237162586
0.00232604971
0.00228094697
0.00223633672
0.00219223643
0.0021486619
0.00210562719
0.00206314465
0.00202122498
0.00197987733
0.00193910947
0.00189892763
0.00185933541
0.00182033318
0.00178191841
0.00174408633
0.00170683044
0.0016701429
0.00163401489
0.00159843679
0.00156339847
0.00152888938
0.00149489872
0.00146141544
0.00142842788
0.00139592354
0.00136389011
0.00133231465
0.00130118288
0.00127047876
0.00124018418
0.00121027871
0.00118073819
0.00115153067
0.00112272866
0.00109422589
0.00106603723
0.00103817318
0.00101063287
0.000983405037
0.000956477227
0.000929839545
0.00090348333
0.000877400007
0.000851581134
0.000826018463
0.000800703714
0.000775628473
0.00075078425
0.000726162519
0.000701754768
0.000677552554
0.000653547533
0.000629731489
0.000606096374
0.0005826343
0.000559337544
0.000536198542
0.000513209887
0.000490364318
0.000467654718
0.000445074109
0.00042261564
0.000400272578
0.000378038315
0.000355906342
0.000333870251
0.000311923736
0.00029006057
0.0002682746
0.000246559745
0.000224909986
0.000203319354
0.000181781926
0.000160291832
0.000138843173
0.00011743023
9.60467073e-05
7.46882573e-05
5.33435132e-05
3.20230771e-05
1.06473369e-05
0.00392799634
0.00392926745
0.00393219569
0.00393675102
0.00394275639
0.00395014987
0.00395893977
0.00396910361
0.00398050584
0.00399335293
0.00400757478
0.00402314728
0.00404003933
0.00405821066
0.00407761317
0.00409820252
0.00411998239
0.00414252914
0.00416608221
0.00419054906
0.00421586312
0.00424193527
0.00426867409
0.0042959867
0.00432377475
0.00435193355
0.00438035299
0.00440891928
0.00443751669
0.00446602694
0.0044943252
0.00452227881
0.00454975043
0.00457659626
0.00460266692
0.00462781094
0.00465187723
0.00467471682
0.00469618482
0.00471614195
0.00473445537
0.00475099908
0.00476565407
0.00477830858
0.00478885864
0.00479720889
0.00480327347
0.004806977
0.0048082554
0.00480705659
0.00480334089
0.00479708134
0.00478826389
0.00477688739
0.00476296353
0.00474651659
0.00472758313
0.00470621146
0.00468246102
0.00465640163
0.00462811264
0.00459768196
0.00456520506
0.00453078389
0.00449452571
0.00445654195
0.00441694703
0.00437585716
0.00433338921
0.00428965965
0.00424478374
0.00419887486
0.00415204423
0.00410440094
0.00405605201
0.00400710284
0.00395765673
0.00390779373
0.00385760174
0.00380714406
0.00375647943
0.00370566486
0.0036547485
0.0036037711
0.00355276939
0.00350177572
0.00345081729
0.0033999167
0.00334909282
0.00329836145
0.00324773585
0.00319722755
0.00314684713
0.00309660489
0.00304651147
0.00299657839
0.00294681849
0.00289724621
0.00284787782
0.00279873144
0.00274982702
0.00270118613
0.00265283179
0.00260478811
0.0025570799
0.00250973238
0.00246277069
0.00241621956
0.00237010296
0.00232444376
0.00227926346
0.00223458196
0.00219041742
0.00214678613
0.00210370242
0.0020611787
0.00201922546
0.00197785131
0.001937063
0.00189686526
0.00185726057
0.00181824888
0.00177982774
0.0017419926
0.00170473715
0.00166805371
0.00163193342
0.00159636658
0.00156134284
0.00152685131
0.00149288075
0.00145941952
0.00142645554
0.00139397636
0.00136196936
0.0013304215
0.00129931898
0.00126864681
0.00123838844
0.00120852636
0.00117904789
0.00114996165
0.00112116702
0.0010927047
0.00106456864
0.00103675726
0.0010092626
0.00098207482
0.000955185629
0.000928587494
0.00090227238
0.000876231628
0.000850456363
0.000824937709
0.000799666791
0.000774634753
0.000749832806
0.000725252238
0.000700884441
0.000676720956
0.000652753458
0.000628973765
0.000605373882
0.000581945996
0.000558682454
0.000535575762
0.000512618576
0.0004898037
0.000467124072
0.000444572771
0.00042214299
0.000399828038
0.00037762134
0.000355516415
0.000333506878
0.000311586439
0.000289748883
0.000267988081
0.000246297981
0.000224672601
0.000203106012
0.000181592334
0.000160125748
0.000138700415
0.000117310693
9.59503847e-05
7.46152071e-05
5.32938307e-05
3.19959827e-05
1.06408953e-05
0.00391939723
0.00392062489
0.00392353333
0.0039281131
0.00393418228
0.00394167087
0.00395058793
0.00396093762
0.00397272527
0.00398587261
0.00400037926
0.00401622314
0.00403338049
0.00405181094
0.00407146771
0.00409229436
0.00411421674
0.00413715896
0.0041611195
0.00418600824
0.00421173771
0.0042382352
0.00426541833
0.00429319495
0.00432146486
0.00435012285
0.00437905988
0.00440816254
0.00443731162
0.00446638104
0.00449523976
0.00452375272
0.00455177668
0.00457916441
0.00460576751
0.00463143568
0.00465601788
0.00467936446
0.00470132901
0.00472176968
0.00474055013
0.00475754012
0.00477261601
0.00478566147
0.00479656832
0.00480523751
0.00481158012
0.00481551827
0.00481698591
0.00481592941
0.0048123081
0.0048060946
0.00479727498
0.00478584884
0.00477182924
0.00475524239
0.0047361273
0.00471453523
0.00469052898
0.0046641821
0.00463557795
0.00460480866
0.00457197408
0.0045371805
0.00450053953
0.00446216687
0.00442218109
0.00438070255
0.00433785241
0.0042937516
0.00424851991
0.0042022752
0.00415513258
0.00410720389
0.00405859726
0.00400941606
0.00395975661
0.00390970873
0.00385934733
0.00380874799
0.00375797125
0.00370707012
0.00365609165
0.00360507632
0.00355405862
0.00350306755
0.00345212678
0.0034012552
0.00335046763
0.00329977566
0.00324918837
0.00319871324
0.00314835703
0.00309812666
0.00304802983
0.00299807577
0.00294827567
0.00289864304
0.00284919387
0.00279994673
0.0027509226
0.00270214463
0.00265363786
0.00260542876
0.00255754476
0.00251001379
0.00246286377
0.00241612216
0.0023698155
0.00232396906
0.00227860652
0.00223374966
0.00218941826
0.00214562988
0.00210239983
0.00205974116
0.00201766465
0.00197617883
0.00193529004
0.00189500234
0.00185531752
0.00181623501
0.00177775207
0.00173986389
0.00170256401
0.0016658445
0.00162969627
0.00159410927
0.00155907263
0.00152457483
0.00149060381
0.00145714705
0.00142419174
0.00139172483
0.00135973316
0.0013282035
0.0012971226
0.00126647714
0.00123625305
0.0012064316
0.0011769793
0.0011478289
0.00111906082
0.00109064924
0.00106257662
0.00103483089
0.00100740324
0.000980285023
0.000953466505
0.00092693765
0.000900689052
0.000874711779
0.000848997028
0.000823536128
0.00079832054
0.000773341722
0.000748591149
0.000724060327
0.000699740829
0.000675624333
0.000651702654
0.000627967751
0.000604411705
0.000581026731
0.000557805193
0.000534739617
0.000511822678
0.000489047194
0.000466406122
0.00044389256
0.000421499731
0.000399220977
0.000377049762
0.000354979648
0.000333004297
0.000311117469
0.000289313002
0.000267584817
0.000245926912
0.000224333347
0.000202798241
0.000181315759
0.000159880135
0.000138485589
0.000117126549
9.57968964e-05
7.44925462e-05
5.32023336e-05
3.1937585e-05
1.06176785e-05
0.0039087799
0.00391002293
0.00391296297
0.00391759224
0.0039237302
0.00393131091
0.00394035058
0.00395084492
0.003962742
0.00397609446
0.00399084863
0.00400698284
0.00402445806
0.00404323435
0.00406326606
0.00408450292
0.00410689401
0.00413036783
0.00415484225
0.0041802647
0.00420656695
0.00423366379
0.0042614669
0.00428988383
0.00431881692
0.00434816332
0.00437781463
0.00440765641
0.00443756827
0.00446742417
0.00449709011
0.00452642242
0.00455527527
0.00458349879
0.00461093842
0.00463743832
0.00466284299
0.0046869983
0.00470975304
0.00473096023
0.00475047808
0.00476817057
0.00478390819
0.00479756873
0.00480903835
0.00481821277
0.00482499836
0.00482931316
0.00483108775
0.00483026592
0.00482680521
0.00482067728
0.00481186811
0.00480037807
0.00478622178
0.00476942789
0.00475003857
0.00472810895
0.00470370635
0.00467690937
0.00464780691
0.00461649705
0.00458308588
0.00454768625
0.00451041658
0.00447139953
0.00443076071
0.00438862733
0.00434512691
0.00430038605
0.00425452951
0.0042076794
0.0041599545
0.00411146974
0.0040623355
0.00401265652
0.00396253055
0.00391204693
0.00386128776
0.00381032448
0.00375922011
0.00370803015
0.00365680207
0.00360557516
0.0035543815
0.00350324669
0.00345219038
0.00340122689
0.00335036614
0.00329961463
0.00324897641
0.0031984541
0.00314804995
0.00309776677
0.00304760886
0.00299758263
0.00294769729
0.00289796512
0.0028484017
0.0027990259
0.00274985968
0.00270092779
0.00265225729
0.00260387705
0.00255581709
0.00250810806
0.00246078057
0.00241386465
0.00236738928
0.00232138187
0.00227586795
0.00223087086
0.00218641155
0.00214250846
0.00209917738
0.00205643156
0.00201428161
0.00197273562
0.00193179924
0.00189147567
0.00185176578
0.00181266816
0.00177417931
0.00173629378
0.00169900441
0.00166230262
0.00162617853
0.00159062128
0.00155561927
0.00152116032
0.00148723182
0.0014538208
0.00142091394
0.00138849761
0.00135655792
0.00132508079
0.00129405201
0.00126345726
0.00123328181
0.00120350839
0.00117409905
0.0011450999
0.00111643764
0.0010881151
0.0010601273
0.00103246523
0.00100511942
0.00097808034
0.000951339046
0.00092488695
0.000898715128
0.000872814262
0.000847175071
0.000821788418
0.000796645311
0.000771736924
0.000747054597
0.000722589832
0.000698334272
0.000674279688
0.000650417993
0.000626741234
0.000603241599
0.000579911418
0.00055674317
0.000533729486
0.000510863144
0.000488137054
0.000465544261
0.000443077942
0.000420731385
0.000398497992
0.000376371276
0.00035434485
0.000332412419
0.00031056779
0.00028880485
0.000267117566
0.000245499983
0.000223946215
0.000202450435
0.000181006867
0.000159609807
0.000138253544
0.000116932574
9.56408567e-05
7.43742933e-05
5.31216609e-05
3.18929156e-05
1.0606448e-05
0.00389612519
0.00389738898
0.00390037736
0.00390508685
0.00391133843
0.0039190677
0.00392829362
0.00393902266
0.00395123398
0.00396487387
0.0039799407
0.00399640504
0.00401423661
0.00403339563
0.00405383738
0.00407551308
0.0040983662
0.00412232742
0.00414734322
0.00417334749
0.00420026783
0.00422802418
0.00425652928
0.00428569031
0.00431540843
0.00434557839
0.00437608833
0.00440681948
0.00443764547
0.00446843199
0.00449903967
0.00452932731
0.00455914392
0.00458833418
0.0046167409
0.00464420378
0.00467056124
0.00469565291
0.00471932137
0.00474141348
0.00476178117
0.00478028207
0.00479678014
0.0048111466
0.00482326118
0.00483301349
0.00484030439
0.00484504714
0.00484716836
0.00484660882
0.00484332395
0.00483728433
0.00482847588
0.00481689995
0.00480257319
0.00478552724
0.00476580825
0.0047434762
0.00471860405
0.00469127679
0.00466159028
0.00462965004
0.0045955699
0.00455947057
0.00452147818
0.00448172288
0.00444033737
0.00439745577
0.00435321246
0.00430774103
0.00426117318
0.00421363765
0.00416525909
0.00411615715
0.00406644543
0.00401623095
0.00396561377
0.00391468609
0.00386352886
0.00381221507
0.00376080787
0.00370936094
0.0036579195
0.00360652062
0.00355519346
0.00350395975
0.00345283445
0.00340182655
0.00335094009
0.00330017533
0.00324952997
0.0031990004
0.00314858299
0.0030982753
0.00304807708
0.0029979912
0.0029480243
0.00289818722
0.00284849514
0.00279896754
0.00274962792
0.00270050332
0.00265162373
0.00260302135
0.00255472987
0.00250678366
0.00245921705
0.00241206363
0.00236535566
0.00231912353
0.00227339531
0.00222819648
0.00218354972
0.0021394747
0.00209598809
0.00205310357
0.00201083183
0.00196918073
0.00192815537
0.00188775824
0.00184798937
0.00180884645
0.00177032507
0.00173241891
0.00169511999
0.00165841899
0.00162230545
0.00158676796
0.00155179432
0.00151737154
0.00148348606
0.00145012383
0.00141727049
0.00138491157
0.00135303265
0.00132161971
0.00129066018
0.00126014588
0.00123008123
0.00120050874
0.00117102316
0.00114203269
0.0011134344
0.00108519294
0.00105729099
0.00102971681
0.00100245992
0.000975510056
0.000948857155
0.000922491501
0.000896403776
0.000870584947
0.000845026015
0.000819718031
0.000794652074
0.00076981935
0.000745211212
0.000720819144
0.000696634771
0.000672649867
0.000648856357
0.000625246313
0.000601811956
0.000578545658
0.000555439934
0.000532487447
0.000509681005
0.000487013551
0.000464478164
0.000442068063
0.000419776587
0.000397597198
0.000375523475
0.0003535491
0.00033166785
0.000309873601
0.000288160305
0.000266521995
0.000244952776
0.000223446825
0.000201998373
0.000180601707
0.000159251185
0.00013794116
0.000116666203
9.54203365e-05
7.41996306e-05
5.29930189e-05
3.18120149e-05
1.05755912e-05
0.00388140165
0.00388268839
0.00388573039
0.00389052421
0.00389689039
0.00390476601
0.00391417211
0.00392511334
0.00393756909
0.00395151624
0.00396692591
0.00398377392
0.0040020268
0.0040216458
0.00404258754
0.00406480268
0.00408823617
0.0041128346
0.00413854254
0.00416528563
0.00419298405
0.00422155655
0.00425091721
0.00428097353
0.00431162619
0.00434276929
0.00437429029
0.00440606969
0.00443798112
0.00446989164
0.00450165921
0.00453312925
0.00456414503
0.00459454464
0.00462416187
0.00465282938
0.00468037953
0.00470664543
0.00473146254
0.00475466993
0.0047761112
0.00479563513
0.00481309659
0.00482835784
0.00484129004
0.00485177496
0.00485970646
0.00486499177
0.00486755255
0.00486732569
0.00486426397
0.00485833653
0.00484952914
0.00483784434
0.00482330122
0.00480593516
0.00478579718
0.00476295326
0.00473748328
0.00470947995
0.00467904754
0.00464630047
0.00461136185
0.00457436204
0.00453543713
0.00449472749
0.00445237618
0.00440852747
0.00436332528
0.00431691172
0.00426942589
0.00422100286
0.00417177281
0.00412186025
0.00407138339
0.00402045344
0.00396917326
0.00391763433
0.00386592373
0.00381411243
0.00376226661
0.00371044056
0.0036586778
0.00360701284
0.00355547102
0.00350406901
0.0034528157
0.00340171326
0.00335075836
0.00329994353
0.00324925864
0.00319869247
0.00314823424
0.00309787512
0.00304760944
0.0029974358
0.00294735786
0.00289738478
0.00284753139
0.00279781808
0.00274827033
0.00269891806
0.00264979486
0.00260093705
0.00255238267
0.00250417052
0.00245633929
0.00240892662
0.00236196848
0.00231549849
0.00226954747
0.00222414309
0.00217930966
0.00213506801
0.00209143543
0.00204842576
0.0020060495
0.00196431394
0.00192322336
0.00188277925
0.00184298047
0.00180382355
0.00176530289
0.00172741101
0.00169013877
0.00165347558
0.00161740958
0.00158192791
0.00154701693
0.00151266247
0.00147885001
0.0014455648
0.00141279183
0.00138051582
0.00134872117
0.00131739166
0.00128650958
0.00125605283
0.00122598686
0.00119624752
0.00116716468
0.00113835996
0.00110989209
0.00108176709
0.00105397739
0.00102651339
0.00099936516
0.000972522864
0.000945976615
0.000919716385
0.000893732409
0.000868015234
0.000842555596
0.000817344371
0.000792372607
0.000767631544
0.000743112583
0.000718807268
0.000694707296
0.000670804526
0.000647090964
0.00062355877
0.000600200257
0.000577007893
0.000553974295
0.000531092232
0.000508354618
0.000485754502
0.000463285059
0.000440939595
0.000418711527
0.00039659438
0.000374581791
0.000352667496
0.000330845324
0.000309109205
0.000287453151
0.000265871256
0.000244357692
0.000222906702
0.000201512591
0.000180169719
0.000158872517
0.000137615414
0.000116393054
9.51995359e-05
7.40309283e-05
5.28761176e-05
3.17454318e-05
1.05567989e-05
0.0038645692
0.00386588238
0.00386898909
0.00387388687
0.00388039484
0.00388845049
0.00389807669
0.00390928039
0.00392203745
0.00393631994
0.00395210731
0.00396937307
0.00398808475
0.00400820457
0.00402969069
0.00405249867
0.0040765813
0.00410188022
0.00412832746
0.00415585669
0.00418439955
0.00421387617
0.00424419821
0.00427527181
0.00430699737
0.00433926867
0.00437197195
0.00440498496
0.00443817562
0.00447140093
0.00450451011
0.00453735096
0.00456975789
0.0046015624
0.00463259231
0.00466267117
0.00469162131
0.00471926614
0.00474543158
0.00476994713
0.00479264659
0.00481336872
0.00483195821
0.00484826713
0.00486215674
0.0048734995
0.00488218081
0.00488810055
0.00489117426
0.00489133408
0.00488852951
0.00488272791
0.00487391486
0.00486209428
0.00484728823
0.00482953656
0.00480889621
0.00478544039
0.00475925746
0.00473044966
0.00469913174
0.00466542931
0.00462947725
0.0045914179
0.00455139925
0.00450957318
0.00446609371
0.00442111543
0.00437479214
0.00432727547
0.00427871369
0.00422925054
0.00417902406
0.00412816563
0.00407679897
0.00402503931
0.00397299306
0.00392075829
0.00386842519
0.00381606512
0.00376374147
0.00371150724
0.00365940457
0.00360746483
0.00355570888
0.00350414762
0.0034527829
0.00340160877
0.00335061283
0.003299778
0.00324908433
0.00319851096
0.00314803804
0.00309764859
0.0030473301
0.00299707581
0.00294688572
0.00289676707
0.00284673448
0.00279680971
0.002747021
0.00269740219
0.00264799162
0.00259883093
0.00254996376
0.00250143457
0.00245328744
0.00240556509
0.00235830799
0.0023115537
0.00226533629
0.002219686
0.00217462905
0.00213018753
0.00208637942
0.00204321874
0.00200071567
0.00195887684
0.00191770557
0.0018772021
0.00183736395
0.00179818615
0.00175966151
0.00172178097
0.00168453385
0.00164790817
0.0016118909
0.00157646821
0.00154162559
0.00150734795
0.00147361971
0.00144042492
0.00140774738
0.00137557069
0.00134387836
0.00131265366
0.00128187952
0.00125153846
0.00122161308
0.00119208182
0.00116300117
0.00113429236
0.00110593862
0.00107793066
0.00105025867
0.00102291221
0.000995880651
0.000969153428
0.000942720256
0.000916571298
0.000890696983
0.000865087808
0.00083973437
0.000814627454
0.000789758036
0.000765117273
0.00074069651
0.000716487271
0.000692481263
0.000668670369
0.000645046638
0.000621602281
0.00059832967
0.000575221328
0.000552269926
0.000529468284
0.000506809363
0.000484286262
0.000461892213
0.000439620587
0.000417464876
0.000395418692
0.000373475764
0.000351629921
0.000329875089
0.000308205285
0.000286614607
0.000265097229
0.000243647398
0.000222259432
0.000200927706
0.000179646648
0.000158410763
0.000137214549
0.00011605272
9.49194414e-05
7.38109018e-05
5.27161145e-05
3.16465195e-05
1.05208496e-05
0.00384558443
0.00384692755
0.00385010629
0.00385511749
0.00386177762
0.00387002443
0.00387988297
0.00389136234
0.00390444127
0.00391909383
0.00393529705
0.00395302681
0.0039722527
0.00399293878
0.00401504539
0.00403852832
0.00406333699
0.00408941804
0.00411671479
0.00414516114
0.00417468055
0.00420519265
0.00423661193
0.00426884596
0.00430179475
0.00433535017
0.00436939546
0.00440380503
0.00443844462
0.00447317165
0.00450783376
0.004542258
0.00457627982
0.00460971957
0.00464239326
0.00467411481
0.00470469684
0.00473395223
0.00476169581
0.00478774549
0.00481192302
0.00483405467
0.00485397241
0.00487151566
0.00488653352
0.0048988871
0.00490845163
0.00491511813
0.00491879482
0.00491940813
0.00491690355
0.0049112463
0.00490242168
0.00489043522
0.00487531252
0.00485709877
0.00483585802
0.00481167215
0.00478463963
0.004754874
0.00472250224
0.00468766295
0.00465050444
0.00461118281
0.00456985999
0.00452670184
0.00448187625
0.00443555133
0.0043878937
0.00433906683
0.00428922966
0.00423853539
0.00418713037
0.00413515314
0.00408273361
0.00402999246
0.00397704091
0.00392398149
0.0038709112
0.0038178982
0.00376500544
0.00371228639
0.00365978158
0.00360751876
0.00355551346
0.00350376964
0.0034522806
0.00340103045
0.00334999577
0.00329914769
0.00324845421
0.00319788258
0.00314740176
0.00309698478
0.00304661072
0.0029962664
0.00294594748
0.00289565913
0.00284541605
0.00279524206
0.00274516921
0.0026952365
0.00264548846
0.00259597349
0.0025467423
0.00249784628
0.00244933614
0.00240126062
0.00235366552
0.0023065929
0.00226008045
0.0022141612
0.00216886331
0.00212421004
0.00208021983
0.00203690658
0.00199427984
0.00195234518
0.00191110452
0.00187055652
0.00183069694
0.00179151899
0.00175301372
0.0017151703
0.00167797634
0.00164141814
0.00160548089
0.00157014893
0.00153540598
0.00150123536
0.00146762013
0.00143454329
0.00140198777
0.00136993649
0.00133837236
0.00130727825
0.00127663691
0.00124643098
0.0012166504
0.00118727773
0.00115831177
0.00112972754
0.00110150599
0.00107363306
0.00104609651
0.00101888486
0.000991987106
0.00096539262
0.000939090886
0.00091307147
0.000887324222
0.000861839375
0.000836607483
0.000811619335
0.000786865913
0.000762338406
0.000738028207
0.000713926891
0.000690026214
0.000666318113
0.000642794705
0.00061944827
0.000596271257
0.000573256279
0.000550396108
0.000527683668
0.000505112034
0.000482674412
0.000460364141
0.000438174685
0.000416099621
0.000394132634
0.000372267522
0.000350498178
0.000328818591
0.00030722285
0.000285705125
0.000264259667
0.000242880809
0.000221562949
0.00020030055
0.000179088129
0.000157920275
0.00013679157
0.000115696814
9.46302543e-05
7.35881242e-05
5.25594608e-05
3.15549918e-05
1.04926957e-05
0.00382439775
0.00382577329
0.00382903028
0.00383416495
0.00384099111
0.00384944685
0.00385955946
0.00387133991
0.00388476772
0.00389981784
0.00391646973
0.0039347006
0.0039544814
0.00397577793
0.00399855235
0.00402276352
0.00404836648
0.00407531102
0.00410353825
0.00413298168
0.00416357035
0.00419522636
0.00422786396
0.00426138991
0.00429570365
0.00433069681
0.00436625258
0.00440224424
0.00443853331
0.00447496841
0.0045113903
0.00454762254
0.00458348666
0.00461879413
0.00465335195
0.00468696075
0.00471941995
0.00475052953
0.00478009122
0.00480790942
0.00483379185
0.00485755032
0.00487900197
0.00489797141
0.00491429334
0.00492781536
0.00493840044
0.00494592895
0.0049503002
0.00495143371
0.00494927013
0.00494377203
0.00493492431
0.00492273443
0.00490723217
0.00488846911
0.00486651775
0.00484147033
0.00481343739
0.00478254602
0.00474893798
0.00471276763
0.0046741997
0.00463340703
0.00459056826
0.00454586559
0.00449948263
0.00445160236
0.00440240536
0.00435206815
0.00430076176
0.00424865041
0.00419589039
0.00414262907
0.00408900389
0.00403514141
0.00398115641
0.00392715185
0.00387325735
0.00381951249
0.00376598695
0.003712736
0.00365979794
0.00360719649
0.00355494118
0.00350302771
0.00345143909
0.00340014729
0.00334911526
0.00329829947
0.00324765276
0.00319712743
0.00314667835
0.00309626601
0.003045859
0.00299543621
0.00294498821
0.00289451791
0.00284404061
0.00279358325
0.00274318311
0.00269288616
0.00264274501
0.00259281685
0.00254316129
0.00249383843
0.00244490709
0.00239642331
0.00234843919
0.00230100201
0.00225415357
0.00220792992
0.00216236122
0.0021174718
0.0020732804
0.00202980046
0.00198704055
0.0019450048
0.00190369335
0.00186310286
0.00182322689
0.00178405639
0.00174558007
0.0017077848
0.00167065592
0.00163417766
0.00159833334
0.00156310568
0.00152847695
0.00149442914
0.00146094402
0.00142800333
0.00139558884
0.00136368245
0.00133226631
0.00130132299
0.00127083564
0.00124078782
0.00121116045
0.00118194439
0.00115312614
0.00112468839
0.00109661476
0.00106889073
0.00104150318
0.00101443978
0.000987688774
0.000961238859
0.000935079206
0.00090919942
0.000883589438
0.000858239432
0.00083313981
0.000808281239
0.000783654636
0.000759251157
0.000735062195
0.000711079345
0.00068729441
0.000663699391
0.000640286476
0.000617048025
0.000593976572
0.000571064813
0.000548305598
0.00052569193
0.000503216955
0.000480873955
0.000458656348
0.000436557685
0.000414571639
0.000392691998
0.00037091267
0.000349227656
0.000327631054
0.000306117056
0.00028467993
0.000263314019
0.000242013743
0.000220773585
0.000199588092
0.00017845186
0.000157359561
0.000136305857
0.000115285627
9.42931955e-05
7.33248936e-05
5.23698624e-05
3.14394711e-05
1.04523984e-05
0.00380095539
0.00380236563
0.00380570642
0.0038109731
0.00381797643
0.0038266547
0.00383703752
0.00384913829
0.00386293812
0.00387841355
0.00389554623
0.00391431591
0.00393469602
0.0039566551
0.00398015841
0.00400516773
0.00403163977
0.00405952501
0.00408876835
0.00411930816
0.00415107469
0.00418399096
0.00421797294
0.00425292916
0.00428876008
0.00432535695
0.00436260054
0.00440036007
0.00443849262
0.00447684287
0.00451523929
0.00455350951
0.00459145732
0.0046288828
0.00466557818
0.0047013323
0.00473593055
0.00476915777
0.00480080006
0.00483064564
0.00485848547
0.00488411398
0.00490733056
0.0049279421
0.00494576614
0.00496063417
0.00497239459
0.00498091508
0.00498608439
0.00498781377
0.00498603808
0.0049807167
0.00497183405
0.00495939984
0.00494344879
0.00492404007
0.00490125623
0.00487520181
0.00484600168
0.00481379894
0.00477875278
0.00474103592
0.00470083216
0.00465833366
0.00461373844
0.00456724773
0.00451906361
0.0044693867
0.00441841409
0.00436633755
0.00431334194
0.00425960392
0.00420529091
0.00415056009
0.00409555737
0.00404041565
0.00398525107
0.00393014802
0.00387533835
0.00382076629
0.00376652741
0.00371268164
0.0036592662
0.0036063005
0.00355378704
0.00350171194
0.00345004611
0.00339874695
0.00334776077
0.0032970259
0.00324647633
0.00319604558
0.00314567084
0.00309529681
0.00304487906
0.00299438674
0.00294380436
0.0028931326
0.00284238807
0.0027916023
0.00274081986
0.00269009599
0.00263949397
0.00258908223
0.00253893171
0.00248911332
0.00243969579
0.00239074391
0.00234231716
0.00229446875
0.00224724501
0.00220068513
0.00215482117
0.00210967826
0.00206527496
0.0020216238
0.00197873177
0.00193660094
0.00189522908
0.00185461018
0.0018147351
0.00177559202
0.00173716696
0.0016994442
0.00166240665
0.00162603618
0.00159031387
0.00155522029
0.00152073568
0.0014868402
0.00145351401
0.0014207375
0.00138849128
0.0013567563
0.00132551388
0.00129474579
0.00126443465
0.00123456401
0.00120511618
0.00117607675
0.00114743114
0.00111916376
0.0010912593
0.00106370332
0.00103648227
0.00100958348
0.00098299492
0.000956705119
0.000930703029
0.000904977984
0.000879519683
0.000854318174
0.000829363841
0.000804647364
0.000780159678
0.000755891965
0.000731835651
0.000707982381
0.000684324015
0.000660852616
0.000637560446
0.000614439944
0.000591483731
0.000568684596
0.00054603549
0.000523529527