/*--------------------------------*- C++ -*----------------------------------*\
| =========                 |                                                 |
| \\      /  F ield         | OpenFOAM: The Open Source CFD Toolbox           |
|  \\    /   O peration     | Version:  v2012                                 |
|   \\  /    A nd           | Website:  www.openfoam.com                      |
|    \\/     M anipulation  |                                                 |
\*---------------------------------------------------------------------------*/
FoamFile
{
    version     2.0;
    format      ascii;
    class       surfaceScalarField;
    location    "2.19";
    object      phiHbyA;
}
// * * * * * * * * * * * * * * * * * * * * * * * * * * * * * * * * * * * * * //

dimensions      [0 3 -1 0 0 0 0];
oriented        oriented;


internalField   nonuniform List<scalar> 
56481
(
6.66612347e-07
1.09097822e-10
6.66484324e-07
2.87179086e-10
6.66311148e-07
3.96207849e-10
6.6612169e-07
4.23866506e-10
6.659412e-07
3.75888863e-10
6.6579131e-07
2.64703883e-10
6.65696785e-07
9.73330681e-11
6.65636534e-07
-1.15509307e-10
6.65629412e-07
-3.59622656e-10
6.65685054e-07
-6.0878737e-10
6.65800302e-07
-8.22243e-10
6.65958943e-07
-9.56921025e-10
6.66135078e-07
-9.79353757e-10
6.66298673e-07
-8.75280204e-10
6.6642226e-07
-6.53353185e-10
6.66487637e-07
-3.42155919e-10
6.66491258e-07
1.57573618e-11
6.66398418e-07
3.89610376e-10
6.66228896e-07
7.2782104e-10
6.65998437e-07
1.00981652e-09
6.65725072e-07
1.21610553e-09
6.65427266e-07
1.33682504e-09
6.65122828e-07
1.37114783e-09
6.64828325e-07
1.32558209e-09
6.64558426e-07
1.21306763e-09
6.64325127e-07
1.05217636e-09
6.64136346e-07
8.66861222e-10
6.63993964e-07
6.86197357e-10
6.63891925e-07
5.42973463e-10
6.63815327e-07
4.70123753e-10
6.63741554e-07
4.95021747e-10
6.63643759e-07
6.3297947e-10
6.63495599e-07
8.82282026e-10
6.63275888e-07
1.22281497e-09
6.62972224e-07
1.61935915e-09
6.62582717e-07
2.02917813e-09
6.62115261e-07
2.41183352e-09
6.61584557e-07
2.7382052e-09
6.61007823e-07
2.9958382e-09
6.60400562e-07
3.18901452e-09
6.59773641e-07
3.33393805e-09
6.59132356e-07
3.45124189e-09
6.5847735e-07
3.55882594e-09
6.57806635e-07
3.66747185e-09
6.57117732e-07
3.78012268e-09
6.56409152e-07
3.89404413e-09
6.55680953e-07
4.00412227e-09
6.54934538e-07
4.10561856e-09
6.54172115e-07
4.1955082e-09
6.53396187e-07
4.27246177e-09
6.52609272e-07
4.33610556e-09
6.51813859e-07
4.3862398e-09
6.51012484e-07
4.42240322e-09
6.50207826e-07
4.44381969e-09
6.49402758e-07
4.449559e-09
6.48600342e-07
4.43872454e-09
6.47803796e-07
4.41056461e-09
6.47016456e-07
4.36450193e-09
6.46241737e-07
4.3001172e-09
6.45483105e-07
4.21712692e-09
6.44744049e-07
4.11537266e-09
6.44028052e-07
3.99482177e-09
6.43338554e-07
3.85557103e-09
6.42678923e-07
3.69785176e-09
6.42052419e-07
3.52203013e-09
6.41462174e-07
3.32861001e-09
6.40911183e-07
3.11823575e-09
6.40402305e-07
2.89168614e-09
6.39938285e-07
2.64987501e-09
6.39521778e-07
2.39383969e-09
6.39155373e-07
2.12471739e-09
6.38841622e-07
1.84372303e-09
6.3858309e-07
1.55210209e-09
6.38382414e-07
1.25104355e-09
6.38241766e-07
9.41516536e-10
6.38162577e-07
6.24421899e-10
6.38143722e-07
3.02085526e-10
6.38178708e-07
-2.33016991e-11
6.38285518e-07
-3.50198953e-10
6.38458305e-07
-6.76274699e-10
6.38696755e-07
-1.00191477e-09
6.39000074e-07
-1.32494638e-09
6.39367316e-07
-1.64349517e-09
6.39797146e-07
-1.95573493e-09
6.40287707e-07
-2.25968896e-09
6.40836634e-07
-2.55330748e-09
6.41441082e-07
-2.83451692e-09
6.42097742e-07
-3.10123502e-09
6.42802884e-07
-3.35139479e-09
6.43552416e-07
-3.58300647e-09
6.44341938e-07
-3.79421926e-09
6.45166785e-07
-3.98338902e-09
6.46022064e-07
-4.14912811e-09
6.46902702e-07
-4.29035419e-09
6.47803484e-07
-4.4063176e-09
6.48719116e-07
-4.49660696e-09
6.49644293e-07
-4.56115652e-09
6.50573768e-07
-4.60023841e-09
6.51502428e-07
-4.61444022e-09
6.52425362e-07
-4.60465034e-09
6.53337923e-07
-4.57203015e-09
6.54235779e-07
-4.51797356e-09
6.55114956e-07
-4.44407711e-09
6.55971869e-07
-4.35209431e-09
6.56803343e-07
-4.24389764e-09
6.57606628e-07
-4.12142784e-09
6.583794e-07
-3.98666405e-09
6.59119759e-07
-3.84157481e-09
6.59826216e-07
-3.6880918e-09
6.60497674e-07
-3.52807612e-09
6.6113341e-07
-3.36329742e-09
6.61733043e-07
-3.19540823e-09
6.62296508e-07
-3.0259347e-09
6.6282402e-07
-2.85626573e-09
6.63316049e-07
-2.68764227e-09
6.6377328e-07
-2.52115991e-09
6.64196585e-07
-2.35776931e-09
6.64586984e-07
-2.19827556e-09
6.64945609e-07
-2.04334494e-09
6.65273687e-07
-1.8935018e-09
6.65572589e-07
-1.74912721e-09
6.65843776e-07
-1.61050297e-09
6.66088754e-07
-1.47783154e-09
6.6630905e-07
-1.35124806e-09
6.66506185e-07
-1.23082568e-09
6.66681665e-07
-1.11658585e-09
6.66836965e-07
-1.00850578e-09
6.66973513e-07
-9.06523939e-10
6.67092679e-07
-8.1054765e-10
6.67195761e-07
-7.20457204e-10
6.67283981e-07
-6.3610696e-10
6.67358468e-07
-5.57325208e-10
6.67420261e-07
-4.839104e-10
6.67470321e-07
-4.15649511e-10
6.67509555e-07
-3.5230278e-10
6.67538824e-07
-2.93597128e-10
6.67558967e-07
-2.39236008e-10
6.67570837e-07
-1.88914868e-10
6.67575347e-07
-1.42343748e-10
6.67573533e-07
-9.92814245e-11
6.67566633e-07
-5.95971352e-11
6.67556337e-07
-2.35065561e-11
6.67545013e-07
9.21061467e-12
6.67526099e-07
3.94450865e-11
6.67501734e-07
6.54203244e-11
6.67473043e-07
8.8749269e-11
6.67440989e-07
1.10017563e-10
6.67406384e-07
1.29462759e-10
6.6736985e-07
1.4719066e-10
6.67331833e-07
1.63277021e-10
6.67292646e-07
1.7777801e-10
6.6725251e-07
1.90729739e-10
6.67211579e-07
2.02172765e-10
6.67169969e-07
2.12165533e-10
6.67127784e-07
2.20782832e-10
6.67085124e-07
2.28111442e-10
6.67042096e-07
2.34246377e-10
6.66998811e-07
2.39286368e-10
6.66955386e-07
2.43329056e-10
6.66911938e-07
2.4646776e-10
6.66868581e-07
2.48788854e-10
6.66825423e-07
2.50370929e-10
6.66782565e-07
2.51283605e-10
6.66740098e-07
2.51588125e-10
6.66698102e-07
2.51337487e-10
6.66656645e-07
2.50578078e-10
6.66615785e-07
2.49350685e-10
6.66575569e-07
2.47692039e-10
6.66536037e-07
2.45635561e-10
6.6649722e-07
2.43212723e-10
6.66459142e-07
2.40453763e-10
6.66421824e-07
2.37387738e-10
6.66385284e-07
2.34043095e-10
6.66349538e-07
2.30447625e-10
6.66314601e-07
2.26627856e-10
6.66280487e-07
2.22609027e-10
6.66247211e-07
2.18414814e-10
6.66214787e-07
2.14066788e-10
6.66183229e-07
2.09584601e-10
6.6615255e-07
2.04985654e-10
6.66122762e-07
2.00285349e-10
6.66093877e-07
1.95496737e-10
6.66065906e-07
1.90631112e-10
6.66038862e-07
1.85696921e-10
6.66012757e-07
1.80703382e-10
6.6598761e-07
1.75641487e-10
6.65963438e-07
1.70559667e-10
6.65940311e-07
1.65222554e-10
6.65918195e-07
1.60563031e-10
1.52042222e-10
6.66624063e-07
1.52038822e-10
6.66496958e-07
4.15338509e-10
6.66313625e-07
5.80753121e-10
6.66104648e-07
6.33943308e-10
6.6589767e-07
5.83924121e-10
6.65715582e-07
4.47867741e-10
6.65575258e-07
2.38679062e-10
6.65497894e-07
-3.67365776e-11
6.65497103e-07
-3.58113139e-10
6.65577951e-07
-6.89132669e-10
6.65735919e-07
-9.79900579e-10
6.65952957e-07
-1.17376971e-09
6.66198988e-07
-1.22523376e-09
6.66437143e-07
-1.1132506e-09
6.66630581e-07
-8.46500082e-10
6.66748485e-07
-4.59614677e-10
6.66765227e-07
4.9794184e-13
6.66683582e-07
4.71672005e-10
6.66502855e-07
9.0888714e-10
6.66241122e-07
1.27183896e-09
6.65922181e-07
1.53528874e-09
6.65571963e-07
1.68727884e-09
6.65215817e-07
1.72755039e-09
6.64876692e-07
1.66500223e-09
6.64574423e-07
1.5156812e-09
6.64324689e-07
1.30230388e-09
6.64137539e-07
1.0544401e-09
6.6401547e-07
8.08713858e-10
6.63951561e-07
6.07336887e-10
6.63928587e-07
4.93554041e-10
6.63919906e-07
5.04166588e-10
6.63892355e-07
6.61012336e-10
6.63811263e-07
9.6389096e-10
6.63646815e-07
1.38783374e-09
6.63379878e-07
1.88693233e-09
6.63005451e-07
2.40431437e-09
6.62532589e-07
2.88547793e-09
6.61980817e-07
3.290833e-09
6.61374191e-07
3.60338719e-09
6.60735e-07
3.82919016e-09
6.60079086e-07
3.99089078e-09
6.59414036e-07
4.11737981e-09
6.58740261e-07
4.23373427e-09
6.58053926e-07
4.35498219e-09
6.57350227e-07
4.48503709e-09
6.56625766e-07
4.61975775e-09
6.55879507e-07
4.75166787e-09
6.55112523e-07
4.87392064e-09
6.54327148e-07
4.98222793e-09
6.53526154e-07
5.07482236e-09
6.5271228e-07
5.15136403e-09
6.51888136e-07
5.21178171e-09
6.51056323e-07
5.2556202e-09
6.50219598e-07
5.28195117e-09
6.49380957e-07
5.28960293e-09
6.48543642e-07
5.27743321e-09
6.47711093e-07
5.24449156e-09
6.46886891e-07
5.19006095e-09
6.46074705e-07
5.1136318e-09
6.4527826e-07
5.0148677e-09
6.445013e-07
4.8935884e-09
6.43747562e-07
4.74976969e-09
6.43020745e-07
4.58354753e-09
6.42324477e-07
4.39522182e-09
6.41662297e-07
4.18525182e-09
6.41037629e-07
3.95425281e-09
6.40453777e-07
3.70299289e-09
6.39913913e-07
3.43238128e-09
6.39421076e-07
3.14346708e-09
6.38978165e-07
2.83742538e-09
6.38587941e-07
2.51553333e-09
6.38253019e-07
2.17915082e-09
6.37975848e-07
1.82968997e-09
6.37758606e-07
1.46860809e-09
6.37602977e-07
1.09736834e-09
6.37510189e-07
7.17327656e-10
6.37482602e-07
3.29686472e-10
6.37522099e-07
-6.31224656e-11
6.37629298e-07
-4.57585562e-10
6.37805424e-07
-8.5268706e-10
6.38050151e-07
-1.24703632e-09
6.38363278e-07
-1.63857011e-09
6.38744082e-07
-2.02490179e-09
6.39191294e-07
-2.40365596e-09
6.39703146e-07
-2.77235422e-09
6.4027733e-07
-3.12840679e-09
6.40910979e-07
-3.46918e-09
6.41600689e-07
-3.79205335e-09
6.42342554e-07
-4.09445745e-09
6.4313221e-07
-4.37394353e-09
6.43964883e-07
-4.62824966e-09
6.44835441e-07
-4.85537261e-09
6.45738447e-07
-5.05362021e-09
6.46668223e-07
-5.22166831e-09
6.47618923e-07
-5.35859749e-09
6.48584611e-07
-5.4639064e-09
6.49559348e-07
-5.53752703e-09
6.50537284e-07
-5.57981936e-09
6.51512741e-07
-5.591545e-09
6.524803e-07
-5.57384761e-09
6.53434864e-07
-5.52821556e-09
6.54371724e-07
-5.45642851e-09
6.55286603e-07
-5.36051661e-09
6.56175692e-07
-5.24270097e-09
6.57035668e-07
-5.10534399e-09
6.57863709e-07
-4.95088504e-09
6.58657489e-07
-4.78180193e-09
6.59415168e-07
-4.60055003e-09
6.60135375e-07
-4.40952924e-09
6.60817177e-07
-4.21104241e-09
6.61460052e-07
-4.00726965e-09
6.62063853e-07
-3.80023747e-09
6.62628766e-07
-3.59180806e-09
6.63155274e-07
-3.38366717e-09
6.63644115e-07
-3.17731252e-09
6.64096248e-07
-2.97405809e-09
6.64512809e-07
-2.77503572e-09
6.64895081e-07
-2.58119581e-09
6.65244462e-07
-2.39331888e-09
6.65562442e-07
-2.21202314e-09
6.65850595e-07
-2.0377729e-09
6.6611055e-07
-1.87090442e-09
6.6634396e-07
-1.71164408e-09
6.66552478e-07
-1.56012624e-09
6.66737733e-07
-1.41640283e-09
6.66901321e-07
-1.28045749e-09
6.67044782e-07
-1.15221627e-09
6.67169597e-07
-1.03155656e-09
6.67277181e-07
-9.18318399e-10
6.67368874e-07
-8.1231078e-10
6.67445946e-07
-7.13314263e-10
6.67509592e-07
-6.21084414e-10
6.67560942e-07
-5.35353359e-10
6.67601056e-07
-4.55834078e-10
6.67630929e-07
-3.82221331e-10
6.6765151e-07
-3.14193186e-10
6.67663712e-07
-2.514182e-10
6.67668428e-07
-1.93567092e-10
6.67666527e-07
-1.4032795e-10
6.67658855e-07
-9.14389e-11
6.67646275e-07
-4.6785297e-11
6.67628489e-07
-5.313096e-12
6.67606171e-07
3.1825193e-11
6.6758084e-07
6.50221093e-11
6.67551801e-07
9.46932853e-11
6.67519487e-07
1.21294382e-10
6.67484351e-07
1.45370852e-10
6.67446769e-07
1.67239433e-10
6.67407126e-07
1.87004978e-10
6.67365821e-07
2.04730054e-10
6.67323222e-07
2.20506942e-10
6.67279634e-07
2.34430363e-10
6.67235312e-07
2.46594341e-10
6.67190461e-07
2.5710472e-10
6.67145249e-07
2.66075985e-10
6.67099811e-07
2.73623376e-10
6.67054266e-07
2.79860217e-10
6.67008721e-07
2.84896973e-10
6.66963272e-07
2.88839095e-10
6.66918013e-07
2.91785471e-10
6.6687303e-07
2.9382736e-10
6.66828406e-07
2.9504887e-10
6.66784215e-07
2.95525189e-10
6.66740527e-07
2.95323804e-10
6.66697406e-07
2.94504579e-10
6.66654907e-07
2.93121091e-10
6.66613078e-07
2.91221224e-10
6.66571962e-07
2.88848502e-10
6.66531592e-07
2.86042574e-10
6.66492001e-07
2.8284051e-10
6.66453211e-07
2.79277421e-10
6.66415245e-07
2.75386405e-10
6.6637812e-07
2.71199167e-10
6.66341852e-07
2.66746095e-10
6.66306452e-07
2.62056055e-10
6.66271933e-07
2.57155989e-10
6.66238303e-07
2.52070878e-10
6.66205572e-07
2.46823257e-10
6.66173747e-07
2.41433437e-10
6.66142837e-07
2.35919272e-10
6.66112848e-07
2.30296528e-10
6.66083787e-07
2.24578396e-10
6.66055662e-07
2.18776098e-10
6.66028481e-07
2.12897491e-10
6.66002251e-07
2.0695142e-10
6.65976984e-07
2.00927923e-10
6.65952675e-07
1.94882009e-10
6.65929346e-07
1.88576362e-10
6.65906771e-07
1.83101493e-10
1.73479201e-10
6.66618739e-07
1.99668811e-10
6.66491818e-07
5.42134037e-10
6.66311641e-07
7.60721243e-10
6.66107862e-07
8.37372809e-10
6.65906949e-07
7.84466422e-10
6.65730908e-07
6.23588518e-10
6.65598488e-07
3.70815102e-10
6.6552294e-07
3.84007012e-11
6.6552141e-07
-3.56522545e-10
6.65598997e-07
-7.66567698e-10
6.65750893e-07
-1.13156214e-09
6.65959303e-07
-1.38190063e-09
6.66195131e-07
-1.46076999e-09
6.66422837e-07
-1.34068237e-09
6.66606843e-07
-1.03027641e-09
6.66717604e-07
-5.70221375e-10
6.66737514e-07
-1.98944207e-11
6.66663354e-07
5.45794054e-10
6.66498906e-07
1.07333906e-09
6.66258622e-07
1.51215802e-09
6.65962301e-07
1.83163273e-09
6.65632924e-07
2.01664849e-09
6.65294084e-07
2.06634812e-09
6.64967939e-07
1.99106319e-09
6.64673963e-07
1.80952473e-09
6.64428016e-07
1.54806799e-09
6.64240868e-07
1.24135716e-09
6.64116177e-07
9.33134284e-10
6.64048399e-07
6.74812316e-10
6.64021473e-07
5.20144595e-10
6.640094e-07
5.15866419e-10
6.63979644e-07
6.90351653e-10
6.63898664e-07
1.04439811e-09
6.63737816e-07
1.54813771e-09
6.63478407e-07
2.14571637e-09
6.6311473e-07
2.7672807e-09
6.6265414e-07
3.34526948e-09
6.62114017e-07
3.83007328e-09
6.61516493e-07
4.19994771e-09
6.60882658e-07
4.46198774e-09
6.60228066e-07
4.64437814e-09
6.59560771e-07
4.78350546e-09
6.58882056e-07
4.91122083e-09
6.58188968e-07
5.04678653e-09
6.5747732e-07
5.19534704e-09
6.56743987e-07
5.35170469e-09
6.55987917e-07
5.506305e-09
6.55210031e-07
5.65033492e-09
6.54412501e-07
5.77825023e-09
6.53598013e-07
5.88777415e-09
6.52769306e-07
5.97851194e-09
6.51929059e-07
6.05045345e-09
6.51079982e-07
6.10311289e-09
6.5022495e-07
6.13539473e-09
6.4936709e-07
6.1458788e-09
6.48509782e-07
6.13316914e-09
6.47656614e-07
6.09610492e-09
6.4681133e-07
6.03381584e-09
6.45977775e-07
5.94568949e-09
6.45159858e-07
5.83132691e-09
6.44361515e-07
5.6905202e-09
6.43586674e-07
5.52325236e-09
6.42839219e-07
5.32970302e-09
6.42122953e-07
5.11025298e-09
6.41441562e-07
4.86547708e-09
6.4079859e-07
4.59613473e-09
6.40197414e-07
4.30315597e-09
6.39641249e-07
3.98761442e-09
6.39133154e-07
3.65071422e-09
6.38676046e-07
3.29376973e-09
6.38272721e-07
2.91818408e-09
6.37925847e-07
2.52544074e-09
6.37637952e-07
2.1170936e-09
6.37411407e-07
1.69475894e-09
6.37248387e-07
1.26009365e-09
6.37150629e-07
8.14895147e-10
6.3711876e-07
3.61459324e-10
6.3715408e-07
-9.83927708e-11
6.37258935e-07
-5.62331735e-10
6.37434487e-07
-1.0280373e-09
6.37680997e-07
-1.49323935e-09
6.37998209e-07
-1.95537528e-09
6.38385494e-07
-2.41168473e-09
6.38841701e-07
-2.85926806e-09
6.39365117e-07
-3.29508661e-09
6.39953466e-07
-3.71598843e-09
6.40603898e-07
-4.118765e-09
6.41312987e-07
-4.50022183e-09
6.4207675e-07
-4.85723045e-09
6.42890671e-07
-5.18681144e-09
6.43749746e-07
-5.48621247e-09
6.44648531e-07
-5.75299443e-09
6.45581215e-07
-5.98509565e-09
6.46541698e-07
-6.18090293e-09
6.4752368e-07
-6.33929955e-09
6.48520765e-07
-6.45968491e-09
6.49526558e-07
-6.54199541e-09
6.50534775e-07
-6.58669865e-09
6.51539333e-07
-6.59476102e-09
6.52534447e-07
-6.56762154e-09
6.53514708e-07
-6.50714345e-09
6.54475144e-07
-6.41554584e-09
6.55411277e-07
-6.29535014e-09
6.56319156e-07
-6.14930431e-09
6.57195377e-07
-5.98031924e-09
6.58037093e-07
-5.79138858e-09
6.58842006e-07
-5.58553973e-09
6.5960835e-07
-5.36575954e-09
6.60334867e-07
-5.13495364e-09
6.61020768e-07
-4.89589664e-09
6.61665701e-07
-4.65120185e-09
6.62269702e-07
-4.40328562e-09
6.62833155e-07
-4.15435581e-09
6.63356744e-07
-3.90639904e-09
6.6384141e-07
-3.66116885e-09
6.64288306e-07
-3.42019251e-09
6.6469876e-07
-3.18477498e-09
6.65074237e-07
-2.95600235e-09
6.65416303e-07
-2.73475877e-09
6.65726604e-07
-2.52173951e-09
6.66006838e-07
-2.31746344e-09
6.66258738e-07
-2.12229773e-09
6.66484039e-07
-1.93647573e-09
6.66684466e-07
-1.76011823e-09
6.66861712e-07
-1.59324735e-09
6.67017431e-07
-1.43580496e-09
6.67153223e-07
-1.28766525e-09
6.67270625e-07
-1.1486433e-09
6.67371104e-07
-1.01850622e-09
6.67456042e-07
-8.96980734e-10
6.67526735e-07
-7.83759603e-10
6.67584388e-07
-6.78510777e-10
6.67630126e-07
-5.8088358e-10
6.67664996e-07
-4.90513429e-10
6.67689976e-07
-4.07026867e-10
6.67705985e-07
-3.30045366e-10
6.67713899e-07
-2.59190838e-10
6.67714551e-07
-1.94094153e-10
6.67708732e-07
-1.34398469e-10
6.67697124e-07
-7.97324926e-11
6.67680014e-07
-2.9591407e-11
6.67658366e-07
1.62301503e-11
6.67633241e-07
5.6888127e-11
6.67604324e-07
9.38796071e-11
6.67571848e-07
1.27113732e-10
6.67536213e-07
1.56876046e-10
6.67498058e-07
1.83477006e-10
6.67458008e-07
2.07251368e-10
6.67416501e-07
2.28487573e-10
6.6737382e-07
2.47398059e-10
6.67330181e-07
2.64139991e-10
6.67285767e-07
2.78844867e-10
6.67240728e-07
2.91637345e-10
6.67195197e-07
3.02639734e-10
6.67149305e-07
3.11972529e-10
6.67103176e-07
3.1975555e-10
6.67056931e-07
3.26107184e-10
6.67010685e-07
3.31143138e-10
6.66964549e-07
3.34974097e-10
6.66918628e-07
3.37703592e-10
6.66873023e-07
3.39427955e-10
6.66827824e-07
3.40241219e-10
6.66783114e-07
3.40228315e-10
6.66738964e-07
3.39466534e-10
6.66695435e-07
3.38025081e-10
6.66652581e-07
3.35966491e-10
6.66610445e-07
3.33347189e-10
6.66569065e-07
3.30218626e-10
6.6652847e-07
3.26627397e-10
6.66488684e-07
3.226164e-10
6.66449725e-07
3.1822538e-10
6.66411609e-07
3.13490896e-10
6.6637435e-07
3.08447183e-10
6.66337957e-07
3.03126369e-10
6.66302443e-07
2.97558069e-10
6.66267816e-07
2.91769778e-10
6.66234087e-07
2.85786943e-10
6.66201264e-07
2.79632601e-10
6.66169355e-07
2.73327845e-10
6.66138369e-07
2.66891395e-10
6.66108311e-07
2.60339824e-10
6.66079188e-07
2.53686989e-10
6.66051005e-07
2.46944712e-10
6.66023766e-07
2.40121517e-10
6.65997476e-07
2.33226735e-10
6.65972138e-07
2.26251121e-10
6.65947755e-07
2.19246329e-10
6.65924366e-07
2.1195949e-10
6.65901926e-07
2.05478148e-10
1.94273226e-10
6.66620299e-07
2.4583865e-10
6.66490865e-07
6.71727163e-10
6.66303022e-07
9.48747654e-10
6.66086628e-07
1.05382131e-09
6.65870635e-07
1.000462e-09
6.65680298e-07
8.13932877e-10
6.65537638e-07
5.13483145e-10
6.65463941e-07
1.12086432e-10
6.65466681e-07
-3.59499848e-10
6.65558719e-07
-8.58899193e-10
6.65735555e-07
-1.30873134e-09
6.65977943e-07
-1.62462948e-09
6.66253433e-07
-1.73660122e-09
6.66522082e-07
-1.60965786e-09
6.66743929e-07
-1.252422e-09
6.6688606e-07
-7.12607105e-10
6.66930769e-07
-6.47250469e-11
6.66861322e-07
6.15199068e-10
6.66688658e-07
1.24595274e-09
6.6642928e-07
1.77148378e-09
6.66107608e-07
2.15328941e-09
6.65750739e-07
2.37353984e-09
6.65385907e-07
2.43123452e-09
6.65038808e-07
2.33824256e-09
6.64732034e-07
2.1164031e-09
6.6448357e-07
1.79666308e-09
6.64305019e-07
1.4200668e-09
6.6419953e-07
1.0388086e-09
6.64159918e-07
7.14636186e-10
6.64167887e-07
5.12418164e-10
6.64195156e-07
4.88880561e-10
6.64206464e-07
6.79367982e-10
6.64164503e-07
1.08673104e-09
6.64036556e-07
1.67651518e-09
6.63800821e-07
2.38194276e-09
6.63450288e-07
3.11836937e-09
6.62992901e-07
3.80327716e-09
6.62448023e-07
4.37563485e-09
6.61840405e-07
4.80831162e-09
6.61193632e-07
5.10956818e-09
6.60525095e-07
5.31377945e-09
6.5984382e-07
5.46570032e-09
6.59151256e-07
5.60475582e-09
6.58444076e-07
5.75498479e-09
6.57717489e-07
5.92299666e-09
6.56967777e-07
6.10252056e-09
6.56193453e-07
6.28176806e-09
6.55395187e-07
6.44977337e-09
6.54575051e-07
6.5995866e-09
6.53735719e-07
6.72832854e-09
6.52879971e-07
6.83550001e-09
6.52010555e-07
6.92112175e-09
6.5113028e-07
6.98464841e-09
6.50242154e-07
7.02478241e-09
6.49349474e-07
7.03981649e-09
6.48455828e-07
7.02806392e-09
6.47565045e-07
6.98812278e-09
6.46681127e-07
6.91894786e-09
6.45808193e-07
6.81981198e-09
6.44950427e-07
6.69025082e-09
6.44112035e-07
6.5300336e-09
6.43297208e-07
6.33915997e-09
6.42510082e-07
6.11786266e-09
6.41754712e-07
5.86660665e-09
6.41035044e-07
5.58607354e-09
6.40354904e-07
5.27714493e-09
6.39717983e-07
4.94088635e-09
6.39127823e-07
4.57852185e-09
6.38587794e-07
4.19142619e-09
6.38101077e-07
3.78110433e-09
6.3767065e-07
3.34916258e-09
6.37299279e-07
2.89729304e-09
6.36989527e-07
2.42725501e-09
6.36743754e-07
1.9408661e-09
6.36564084e-07
1.44001867e-09
6.36452465e-07
9.26687425e-10
6.36411066e-07
4.02952013e-10
6.36441435e-07
-1.28757186e-10
6.36544873e-07
-6.65840856e-10
6.36722294e-07
-1.2056136e-09
6.36974245e-07
-1.74543119e-09
6.37300885e-07
-2.28233976e-09
6.3770188e-07
-2.81308283e-09
6.38176322e-07
-3.33418974e-09
6.38722689e-07
-3.8420046e-09
6.39338801e-07
-4.33272051e-09
6.40021793e-07
-4.8024397e-09
6.40768095e-07
-5.24726749e-09
6.41573454e-07
-5.66338867e-09
6.42432964e-07
-6.04717259e-09
6.43341123e-07
-6.39526929e-09
6.44291902e-07
-6.70471396e-09
6.45278834e-07
-6.97300484e-09
6.4629511e-07
-7.19818855e-09
6.47333693e-07
-7.37891926e-09
6.48387435e-07
-7.51448527e-09
6.49449202e-07
-7.60483604e-09
6.50511994e-07
-7.65057618e-09
6.51569069e-07
-7.65292586e-09
6.52614043e-07
-7.61368576e-09
6.53640988e-07
-7.53517407e-09
6.54644506e-07
-7.4201394e-09
6.55619785e-07
-7.27169014e-09
6.56562635e-07
-7.09319862e-09
6.57469514e-07
-6.88821989e-09
6.58337522e-07
-6.66039262e-09
6.59164391e-07
-6.41337721e-09
6.5994846e-07
-6.15076621e-09
6.60688635e-07
-5.87603483e-09
6.61384349e-07
-5.59248238e-09
6.62035509e-07
-5.30319705e-09
6.62642439e-07
-5.01101581e-09
6.63205833e-07
-4.71851269e-09
6.63726695e-07
-4.42798627e-09
6.64206286e-07
-4.14144903e-09
6.6464608e-07
-3.86063801e-09
6.65047712e-07
-3.58702264e-09
6.65412941e-07
-3.32181193e-09
6.65743614e-07
-3.06597705e-09
6.66041631e-07
-2.82026942e-09
6.66308925e-07
-2.58523721e-09
6.66547431e-07
-2.36125319e-09
6.6675907e-07
-2.14853416e-09
6.66945724e-07
-1.94716436e-09
6.67109222e-07
-1.7571108e-09
6.6725132e-07
-1.57824411e-09
6.67373692e-07
-1.41035489e-09
6.6747792e-07
-1.2531682e-09
6.67565498e-07
-1.1063615e-09
6.67637833e-07
-9.69576271e-10
6.67696253e-07
-8.42424596e-10
6.67742008e-07
-7.24496343e-10
6.6777627e-07
-6.15363278e-10
6.67800135e-07
-5.14582881e-10
6.67814619e-07
-4.21704756e-10
6.67820666e-07
-3.36275672e-10
6.67819144e-07
-2.57844255e-10
6.67810846e-07
-1.85969059e-10
6.67796513e-07
-1.202446e-10
6.67776998e-07
-6.04185464e-11
6.67753919e-07
-6.75626236e-12
6.67726883e-07
4.32132595e-11
6.67695645e-07
8.80995502e-11
6.67661204e-07
1.28303508e-10
6.67623964e-07
1.64340144e-10
6.67584245e-07
1.96584292e-10
6.675423e-07
2.25413785e-10
6.67498403e-07
2.51138296e-10
6.67452896e-07
2.73979777e-10
6.6740615e-07
2.94126494e-10
6.67358504e-07
3.11768177e-10
6.6731024e-07
3.2709075e-10
6.67261594e-07
3.40268261e-10
6.67212754e-07
3.5146736e-10
6.67163869e-07
3.60849e-10
6.67115056e-07
3.68563306e-10
6.67066417e-07
3.74743515e-10
6.67018046e-07
3.79515698e-10
6.66970024e-07
3.82999634e-10
6.66922425e-07
3.85308306e-10
6.66875314e-07
3.8654691e-10
6.66828752e-07
3.8681349e-10
6.66782794e-07
3.86197219e-10
6.66737493e-07
3.84779818e-10
6.66692896e-07
3.82635224e-10
6.66649045e-07
3.79830874e-10
6.66605979e-07
3.76427941e-10
6.66563729e-07
3.72482463e-10
6.66522326e-07
3.68045427e-10
6.66481794e-07
3.63164008e-10
6.66442153e-07
3.57882079e-10
6.66403419e-07
3.52240022e-10
6.66365607e-07
3.46275527e-10
6.66328726e-07
3.40023696e-10
6.66292784e-07
3.33516586e-10
6.66257787e-07
3.26783811e-10
6.66223739e-07
3.1985252e-10
6.66190642e-07
3.12746893e-10
6.66158498e-07
3.05488753e-10
6.6612731e-07
2.98097297e-10
6.66097078e-07
2.90589488e-10
6.66067803e-07
2.82979498e-10
6.66039486e-07
2.75279548e-10
6.66012126e-07
2.67498518e-10
6.65985724e-07
2.5964685e-10
6.65960277e-07
2.51716044e-10
6.65935768e-07
2.43768733e-10
6.65912201e-07
2.35553327e-10
6.65889308e-07
2.28335393e-10
2.16179493e-10
6.66619706e-07
2.92502377e-10
6.664896e-07
8.01962195e-10
6.66301524e-07
1.1369564e-09
6.66085395e-07
1.26995975e-09
6.65869544e-07
1.21629789e-09
6.65678585e-07
1.00492217e-09
6.65534098e-07
6.58034815e-10
6.65453206e-07
1.93056376e-10
6.65459388e-07
-3.65442607e-10
6.6555535e-07
-9.5461443e-10
6.65736027e-07
-1.4891403e-09
6.65982081e-07
-1.87042181e-09
6.66261694e-07
-2.01596228e-09
6.66535646e-07
-1.88337079e-09
6.66764474e-07
-1.48102993e-09
6.66915218e-07
-8.6315409e-10
6.66963727e-07
-1.13097982e-10
6.66908159e-07
6.70813399e-10
6.66750084e-07
1.40404847e-09
6.66505567e-07
2.01599644e-09
6.66197187e-07
2.46162499e-09
6.65851414e-07
2.71923513e-09
6.65495524e-07
2.78702201e-09
6.65155366e-07
2.6782839e-09
6.64853818e-07
2.41782483e-09
6.64609437e-07
2.04091418e-09
6.6443477e-07
1.59459864e-09
6.6433421e-07
1.13922724e-09
6.64301783e-07
7.46912875e-10
6.64319779e-07
4.94252411e-10
6.64359319e-07
4.49136646e-10
6.64383932e-07
6.54517388e-10
6.64355656e-07
1.11473152e-09
6.64241574e-07
1.79027829e-09
6.64019524e-07
2.6036279e-09
6.63681717e-07
3.45576754e-09
6.63235096e-07
4.24944551e-09
6.62698164e-07
4.91207117e-09
6.62095202e-07
5.41073594e-09
6.61449762e-07
5.75442846e-09
6.60779515e-07
5.98340731e-09
6.60093859e-07
6.15069781e-09
6.59394541e-07
6.30337777e-09
6.5867837e-07
6.47042362e-09
6.57940545e-07
6.6600569e-09
6.57177257e-07
6.86501287e-09
6.56386926e-07
7.07127584e-09
6.55570165e-07
7.26568729e-09
6.54729047e-07
7.43983673e-09
6.53866298e-07
7.59019321e-09
6.52984785e-07
7.71611461e-09
6.52087378e-07
7.81762097e-09
6.51177036e-07
7.89407676e-09
6.50256953e-07
7.94395028e-09
6.49330643e-07
7.96521426e-09
6.48401941e-07
7.95585988e-09
6.47474952e-07
7.91421622e-09
6.4655398e-07
7.83903933e-09
6.45643462e-07
7.72946722e-09
6.44747919e-07
7.58495341e-09
6.43871907e-07
7.40523119e-09
6.43019973e-07
7.19030991e-09
6.42196605e-07
6.9404798e-09
6.41406185e-07
6.65631392e-09
6.40652935e-07
6.33865193e-09
6.39940874e-07
5.98857724e-09
6.39273791e-07
5.60738478e-09
6.38655242e-07
5.19653077e-09
6.3808857e-07
4.75760305e-09
6.37576935e-07
4.29228881e-09
6.37123344e-07
3.80234847e-09
6.36730661e-07
3.28961559e-09
6.36401607e-07
2.75599713e-09
6.36138731e-07
2.20348158e-09
6.3594439e-07
1.63415108e-09
6.35820719e-07
1.05020423e-09
6.35769561e-07
4.54012081e-10
6.35792767e-07
-1.52001533e-10
6.35892129e-07
-7.65184703e-10
6.36069077e-07
-1.38248553e-09
6.36324498e-07
-2.00071739e-09
6.36658752e-07
-2.61640359e-09
6.37071674e-07
-3.22576158e-09
6.37562508e-07
-3.82473209e-09
6.38129846e-07
-4.40900545e-09
6.38771574e-07
-4.97406972e-09
6.3948483e-07
-5.51527729e-09
6.40265971e-07
-6.02795477e-09
6.41110569e-07
-6.50749994e-09
6.42013428e-07
-6.94951344e-09
6.42968626e-07
-7.34992086e-09
6.43969589e-07
-7.70510628e-09
6.45009194e-07
-8.01201561e-09
6.46079887e-07
-8.26826679e-09
6.47173825e-07
-8.47222671e-09
6.48283033e-07
-8.62304693e-09
6.49399551e-07
-8.72069604e-09
6.50515592e-07
-8.76595046e-09
6.51623683e-07
-8.76034346e-09
6.52716791e-07
-8.70611695e-09
6.53788434e-07
-8.60613935e-09
6.54832765e-07
-8.46379451e-09
6.55844635e-07
-8.28288932e-09
6.56819634e-07
-8.06753275e-09
6.57754103e-07
-7.82203275e-09
6.58645129e-07
-7.55077437e-09
6.59490526e-07
-7.25814216e-09
6.6028879e-07
-6.94841316e-09
6.61039054e-07
-6.62569744e-09
6.61741025e-07
-6.29387024e-09
6.62394924e-07
-5.95653236e-09
6.63001418e-07
-5.61696634e-09
6.63561555e-07
-5.27812597e-09
6.64076696e-07
-4.94262546e-09
6.64548458e-07
-4.61273129e-09
6.64978655e-07
-4.29037822e-09
6.6536925e-07
-3.97718217e-09
6.65722304e-07
-3.67445248e-09
6.66039939e-07
-3.38322114e-09
6.66324305e-07
-3.10426636e-09
6.66577549e-07
-2.83813356e-09
6.66801791e-07
-2.58516779e-09
6.66999101e-07
-2.34553702e-09
6.67171486e-07
-2.11926084e-09
6.67320876e-07
-1.90623164e-09
6.67449124e-07
-1.70624113e-09
6.67558003e-07
-1.51899864e-09
6.67649197e-07
-1.3441429e-09
6.67724299e-07
-1.18125618e-09
6.67784792e-07
-1.02987476e-09
6.67832052e-07
-8.89499259e-10
6.67867341e-07
-7.59609159e-10
6.6789182e-07
-6.39673361e-10
6.67906557e-07
-5.29157616e-10
6.6791254e-07
-4.27532113e-10
6.67910693e-07
-3.34277008e-10
6.67901888e-07
-2.48888876e-10
6.67886962e-07
-1.70886379e-10
6.67866677e-07
-9.97789083e-11
6.67841319e-07
-3.48196712e-11
6.67810282e-07
2.44862914e-11
6.67776407e-07
7.71533575e-11
6.67739532e-07
1.25016039e-10
6.67699831e-07
1.68037818e-10
6.67657648e-07
2.06549809e-10
6.67613355e-07
2.40898181e-10
6.67567375e-07
2.71412379e-10
6.67520106e-07
2.98424818e-10
6.67471842e-07
3.22260914e-10
6.67422789e-07
3.43195677e-10
6.67373122e-07
3.61448271e-10
6.67323013e-07
3.77208663e-10
6.67272623e-07
3.90662326e-10
6.672221e-07
4.01990649e-10
6.67171582e-07
4.11363523e-10
6.67121197e-07
4.18939792e-10
6.67071062e-07
4.2486835e-10
6.67021275e-07
4.29289418e-10
6.66971925e-07
4.32333588e-10
6.66923093e-07
4.34122633e-10
6.66874852e-07
4.34769531e-10
6.66827266e-07
4.34379448e-10
6.66780393e-07
4.33049034e-10
6.66734284e-07
4.30867618e-10
6.66688982e-07
4.27916473e-10
6.66644521e-07
4.24270171e-10
6.6660093e-07
4.1999663e-10
6.66558233e-07
4.1515805e-10
6.66516446e-07
4.09810666e-10
6.66475583e-07
4.04005905e-10
6.66435652e-07
3.97790865e-10
6.66396662e-07
3.91208169e-10
6.66358619e-07
3.84297039e-10
6.66321528e-07
3.77093644e-10
6.66285392e-07
3.69630789e-10
6.66250216e-07
3.61938704e-10
6.66216002e-07
3.54045121e-10
6.66182753e-07
3.45974803e-10
6.6615047e-07
3.37750253e-10
6.66119155e-07
3.29391388e-10
6.66088808e-07
3.20915942e-10
6.66059428e-07
3.12338842e-10
6.66031014e-07
3.03673114e-10
6.66003564e-07
2.94928588e-10
6.65977075e-07
2.86116458e-10
6.65951543e-07
2.77229405e-10
6.65926963e-07
2.68325546e-10
6.65903369e-07
2.59138003e-10
6.65880737e-07
2.50900573e-10
2.3712924e-10
6.66618873e-07
3.40096065e-10
6.66485814e-07
9.35152376e-10
6.66292493e-07
1.33040802e-09
6.66069624e-07
1.4928211e-09
6.65847136e-07
1.43872927e-09
6.65651489e-07
1.20052519e-09
6.65505892e-07
8.03589247e-10
6.65432311e-07
2.66565626e-10
6.65442709e-07
-3.75996888e-10
6.65548047e-07
-1.06009721e-09
6.65743522e-07
-1.68476563e-09
6.66008908e-07
-2.13595033e-09
6.66310399e-07
-2.31758929e-09
6.66606482e-07
-2.1795784e-09
6.66855455e-07
-1.73011219e-09
6.67022581e-07
-1.03037417e-09
6.67086362e-07
-1.76958173e-10
6.67036777e-07