/*--------------------------------*- C++ -*----------------------------------*\
| =========                 |                                                 |
| \\      /  F ield         | OpenFOAM: The Open Source CFD Toolbox           |
|  \\    /   O peration     | Version:  v2012                                 |
|   \\  /    A nd           | Website:  www.openfoam.com                      |
|    \\/     M anipulation  |                                                 |
\*---------------------------------------------------------------------------*/
FoamFile
{
    version     2.0;
    format      ascii;
    class       volScalarField;
    location    "2.04";
    object      p;
}
// * * * * * * * * * * * * * * * * * * * * * * * * * * * * * * * * * * * * * //

dimensions      [0 2 -2 0 0 0 0];


internalField   nonuniform List<scalar> 
28416
(
-0.0221303052
-0.0221293813
-0.0221274101
-0.0221242586
-0.022119923
-0.0221143921
-0.0221076304
-0.0220996111
-0.0220903057
-0.0220796832
-0.0220677179
-0.0220543947
-0.0220397066
-0.0220236491
-0.0220062351
-0.0219875617
-0.021967484
-0.0219459556
-0.0219229143
-0.0218983409
-0.0218722086
-0.0218444735
-0.0218150923
-0.0217840327
-0.0217512832
-0.0217168371
-0.0216806724
-0.0216427549
-0.0216030447
-0.0215614977
-0.0215180764
-0.0214727549
-0.0214255154
-0.0213763445
-0.0213252314
-0.021272165
-0.0212171321
-0.0211601168
-0.0211011024
-0.0210400721
-0.0209770114
-0.0209119087
-0.0208447563
-0.0207755495
-0.020704287
-0.0206309696
-0.0205556006
-0.020478185
-0.0203987301
-0.020317245
-0.0202337408
-0.0201482303
-0.020060728
-0.0199712498
-0.0198798128
-0.0197864352
-0.0196911363
-0.019593936
-0.0194948552
-0.0193939154
-0.0192911387
-0.0191865479
-0.0190801667
-0.0189720195
-0.0188621318
-0.0187505302
-0.0186372426
-0.0185222983
-0.0184057276
-0.0182875616
-0.0181678311
-0.0180465632
-0.0179237692
-0.0177994807
-0.0176737565
-0.0175467113
-0.0174183924
-0.0172888669
-0.0171581482
-0.017026243
-0.0168931986
-0.0167590702
-0.0166239062
-0.0164877547
-0.016350666
-0.0162126908
-0.0160738787
-0.0159342783
-0.015793937
-0.0156529003
-0.0155112115
-0.0153689116
-0.0152260388
-0.0150826282
-0.0149387122
-0.0147943195
-0.014649476
-0.0145042043
-0.0143585238
-0.0142124513
-0.0140660004
-0.0139191826
-0.0137720067
-0.0136244799
-0.0134766075
-0.0133283934
-0.0131798403
-0.0130309502
-0.0128817241
-0.0127321631
-0.0125822677
-0.0124320386
-0.0122814765
-0.0121305824
-0.0119793576
-0.0118278038
-0.0116759233
-0.0115237186
-0.0113711929
-0.0112183498
-0.0110651933
-0.0109117281
-0.0107579589
-0.010603891
-0.0104495299
-0.0102948816
-0.010139952
-0.00998474737
-0.00982927438
-0.00967353988
-0.0095175511
-0.0093613156
-0.00920484117
-0.00904813579
-0.00889120763
-0.00873406478
-0.00857671526
-0.0084191669
-0.00826142704
-0.00810350185
-0.00794539453
-0.00778711284
-0.0076286833
-0.00747012807
-0.00731144317
-0.00715261726
-0.00699364604
-0.00683453127
-0.00667527789
-0.00651589098
-0.00635637621
-0.0061967395
-0.00603698677
-0.00587712378
-0.00571715591
-0.00555708824
-0.00539692558
-0.00523667244
-0.00507633313
-0.00491591178
-0.00475541237
-0.00459483867
-0.00443419431
-0.0042734828
-0.00411270749
-0.00395187165
-0.00379097844
-0.00363003089
-0.00346903196
-0.00330798454
-0.00314689141
-0.00298575527
-0.0028245788
-0.00266336455
-0.00250211502
-0.00234083269
-0.00217951995
-0.00201817913
-0.00185681256
-0.00169542253
-0.00153401124
-0.0013725809
-0.00121113369
-0.00104967175
-0.000888197019
-0.000726712094
-0.000565217841
-0.000403721949
-0.000242212252
-8.07602865e-05
-0.0221321833
-0.0221311744
-0.0221289534
-0.0221255886
-0.022121078
-0.0221153882
-0.0221084816
-0.0221003445
-0.0220909665
-0.0220803293
-0.0220684116
-0.0220551944
-0.022040662
-0.0220248092
-0.0220076467
-0.0219890123
-0.0219689772
-0.0219475029
-0.021924577
-0.0219001445
-0.0218741623
-0.0218465946
-0.0218174104
-0.02178659
-0.0217540991
-0.0217199015
-0.0216839703
-0.0216462835
-0.0216068143
-0.0215655315
-0.0215224022
-0.0214773949
-0.021430483
-0.021381644
-0.0213308583
-0.0212781076
-0.0212233739
-0.0211666395
-0.0211078873
-0.0210471014
-0.020984268
-0.0209193755
-0.020852415
-0.0207833805
-0.0207122687
-0.0206390786
-0.0205638121
-0.0204864733
-0.0204070684
-0.0203256061
-0.0202420969
-0.0201565532
-0.0200689893
-0.0199794211
-0.0198878658
-0.0197943421
-0.0196988698
-0.0196014697
-0.0195021638
-0.0194009748
-0.0192979265
-0.0191930434
-0.019086351
-0.0189778757
-0.0188676449
-0.0187556869
-0.0186420308
-0.0185267068
-0.0184097458
-0.0182911792
-0.0181710386
-0.0180493544
-0.0179261558
-0.0178014812
-0.0176753848
-0.0175479113
-0.0174191955
-0.0172892237
-0.0171580412
-0.0170256925
-0.01689222
-0.0167576731
-0.0166221036
-0.0164855631
-0.0163481037
-0.016209778
-0.016070638
-0.0159307347
-0.0157901175
-0.0156488341
-0.0155069295
-0.0153644461
-0.0152214233
-0.0150778969
-0.0149338992
-0.0147894588
-0.0146446008
-0.0144993462
-0.014353713
-0.0142077156
-0.0140613654
-0.013914671
-0.0137676386
-0.0136202724
-0.0134725747
-0.0133245466
-0.013176188
-0.013027498
-0.0128784756
-0.0127291193
-0.0125794277
-0.0124293995
-0.012279034
-0.0121283308
-0.01197729
-0.0118259126
-0.0116741999
-0.0115221541
-0.0113697781
-0.0112170752
-0.0110640494
-0.0109107053
-0.0107570481
-0.0106030833
-0.0104488169
-0.0102942554
-0.0101394053
-0.009984274
-0.00982886874
-0.0096731972
-0.00951726716
-0.00936108658
-0.00920466347
-0.0090480059
-0.00889112204
-0.00873401998
-0.00857670772
-0.00841919318
-0.00826148397
-0.00810358751
-0.00794551131
-0.00778726519
-0.00762886178
-0.0074703071
-0.0073116077
-0.0071527535
-0.00699375214
-0.00683461474
-0.00667534621
-0.00651594993
-0.00635643026
-0.00619679168
-0.00603703871
-0.00587717615
-0.00571720885
-0.00555714164
-0.00539697922
-0.00523672608
-0.0050763865
-0.00491596459
-0.00475546434
-0.00459488955
-0.00443424389
-0.0042735309
-0.00411275401
-0.00395191651
-0.00379102162
-0.00363007239
-0.0034690718
-0.00330802275
-0.00314692802
-0.00298579033
-0.00282461233
-0.0026633966
-0.00250214565
-0.00234086196
-0.00217954792
-0.00201820585
-0.00185683807
-0.00169544685
-0.00153403439
-0.00137260288
-0.00121115448
-0.00104969138
-0.000888215611
-0.000726729787
-0.00056523449
-0.000403737149
-0.000242224045
-8.07671513e-05
-0.0221355656
-0.0221345685
-0.0221324688
-0.0221291576
-0.0221247023
-0.022119072
-0.0221122301
-0.0221041556
-0.0220948324
-0.0220842401
-0.0220723567
-0.0220591641
-0.0220446482
-0.0220287928
-0.0220115763
-0.0219930014
-0.0219730215
-0.0219516289
-0.0219287569
-0.0219043793
-0.0218784728
-0.0218510012
-0.0218219245
-0.0217912044
-0.0217588063
-0.0217247022
-0.021688867
-0.0216512714
-0.0216118829
-0.0215706669
-0.0215275919
-0.021482633
-0.0214357675
-0.0213869735
-0.0213362311
-0.0212835215
-0.0212288257
-0.0211721251
-0.0211134016
-0.0210526385
-0.0209898211
-0.020924938
-0.0208579802
-0.020788942
-0.0207178205
-0.0206446152
-0.0205693281
-0.0204919635
-0.0204125279
-0.0203310301
-0.0202474808
-0.020161893
-0.020074281
-0.0199846612
-0.019893051
-0.0197994694
-0.0197039365
-0.0196064733
-0.0195071017
-0.0194058446
-0.0193027256
-0.0191977687
-0.0190909992
-0.0189824428
-0.0188721263
-0.0187600775
-0.0186463253
-0.0185309002
-0.0184138336
-0.0182951577
-0.0181749056
-0.0180531109
-0.0179298092
-0.0178050425
-0.0176788585
-0.0175513186
-0.017422458
-0.0172923348
-0.0171609968
-0.0170284846
-0.0168948426
-0.0167601224
-0.0166243769
-0.0164876591
-0.0163500229
-0.0162115227
-0.0160722125
-0.0159321453
-0.0157913722
-0.0156499426
-0.0155079031
-0.0153652974
-0.0152221657
-0.0150785447
-0.014934467
-0.0147899613
-0.0146450524
-0.0144997611
-0.0143541044
-0.0142080958
-0.0140617456
-0.013915061
-0.0137680471
-0.0136207063
-0.0134730398
-0.0133250471
-0.0131767269
-0.0130280772
-0.0128790955
-0.0127297796
-0.012580127
-0.012430136
-0.0122798051
-0.0121291335
-0.0119781211
-0.0118267686
-0.0116750772
-0.011523049
-0.0113706871
-0.0112179949
-0.0110649766
-0.0109116371
-0.0107579816
-0.0106040162
-0.010449747
-0.0102951807
-0.0101403241
-0.00998518427
-0.00982976843
-0.00967408411
-0.0095181391
-0.00936194149
-0.00920549956
-0.00904882168
-0.00889191634
-0.00873479193
-0.00857745672
-0.00841991888
-0.00826218634
-0.00810426689
-0.00794616832
-0.00778789877
-0.00762946609
-0.00747087664
-0.00731213258
-0.00715325356
-0.00699424223
-0.00683509227
-0.00667580479
-0.00651638632
-0.0063568428
-0.00619717978
-0.00603740308
-0.00587751831
-0.00571753061
-0.00555744473
-0.00539726513
-0.00523699599
-0.00507664133
-0.00491620518
-0.00475569144
-0.00459510385
-0.00443444604
-0.00427372149
-0.00411293353
-0.00395208543
-0.00379118034
-0.00363022128
-0.00346921119
-0.00330815297
-0.00314704939
-0.00298590315
-0.00282471691
-0.00266349322
-0.00250223456
-0.00234094337
-0.00217962203
-0.00201827285
-0.00185689815
-0.00169550018
-0.00153408114
-0.0013726432
-0.00121118851
-0.00104971925
-0.000888237366
-0.000726745423
-0.000565244082
-0.000403740898
-0.000242223366
-8.07640393e-05
-0.0221402701
-0.0221392405
-0.0221369555
-0.0221335542
-0.0221290179
-0.0221233221
-0.0221164326
-0.0221083356
-0.0220990235
-0.0220884811
-0.0220766881
-0.0220636244
-0.0220492711
-0.0220336114
-0.0220166269
-0.0219982671
-0.0219785097
-0.0219573139
-0.0219346608
-0.0219105131
-0.0218848314
-0.0218575817
-0.021828732
-0.0217982513
-0.0217661107
-0.0217322806
-0.0216967303
-0.0216594262
-0.021620332
-0.0215794174
-0.0215366548
-0.0214920143
-0.0214454687
-0.0213969938
-0.0213465671
-0.0212941666
-0.0212397701
-0.0211833557
-0.0211249024
-0.021064391
-0.0210018051
-0.0209371314
-0.0208703596
-0.0208014826
-0.0207304962
-0.020657399
-0.020582192
-0.0205048789
-0.0204254659
-0.0203439615
-0.0202603766
-0.0201747241
-0.0200870187
-0.0199972773
-0.0199055179
-0.0198117602
-0.0197160252
-0.0196183349
-0.0195187125
-0.0194171819
-0.0193137682
-0.0192084973
-0.0191013961
-0.0189924924
-0.0188818147
-0.0187693926
-0.0186552559
-0.0185394351
-0.0184219613
-0.0183028667
-0.018182185
-0.0180599521
-0.0179362067
-0.0178109916
-0.0176843526
-0.0175563426
-0.0174270111
-0.0172964046
-0.0171645717
-0.0170315644
-0.0168974347
-0.0167622355
-0.0166260215
-0.0164888484
-0.0163507728
-0.0162118514
-0.0160721408
-0.0159316967
-0.015790573
-0.0156488215
-0.0155064912
-0.0153636278
-0.0152202729
-0.0150764642
-0.0149322348
-0.0147876133
-0.0146426236
-0.0144972852
-0.0143516133
-0.0142056192
-0.0140593106
-0.0139126919
-0.013765765
-0.0136185296
-0.0134709834
-0.0133231231
-0.0131749443
-0.0130264422
-0.012877612
-0.012728449
-0.0125789488
-0.0124291076
-0.0122789227
-0.0121283917
-0.0119775136
-0.0118262881
-0.0116747159
-0.0115227988
-0.0113705392
-0.0112179407
-0.0110650073
-0.0109117441
-0.0107581566
-0.0106042508
-0.0104500331
-0.0102955107
-0.0101406909
-0.00998558178
-0.00983019167
-0.00967452911
-0.00951860266
-0.00936242089
-0.0092059923
-0.00904932535
-0.00889242849
-0.00873531005
-0.00857797829
-0.00842044143
-0.0082627075
-0.00810478447
-0.00794668037
-0.00778840354
-0.00762996317
-0.00747136969
-0.00731263718
-0.00715375089
-0.00699471308
-0.00683553758
-0.00667623382
-0.00651680398
-0.00635725082
-0.00619757946
-0.00603779479
-0.00587790145
-0.00571790412
-0.00555780749
-0.00539761623
-0.00523733492
-0.00507696795
-0.00491651946
-0.00475599341
-0.00459539358
-0.00443472362
-0.00427398707
-0.00411318731
-0.00395232764
-0.00379141125
-0.00363044118
-0.00346942037
-0.00330835172
-0.00314723797
-0.00298608181
-0.00282488587
-0.00266365268
-0.00250238472
-0.00234108443
-0.00217975417
-0.00201839623
-0.00185701291
-0.00169560645
-0.00153417901
-0.00137273274
-0.00121126979
-0.00104979227
-0.000888302105
-0.000726801811
-0.000565291851
-0.000403779546
-0.000242250471
-8.07772075e-05
-0.0221465643
-0.0221455626
-0.0221433875
-0.0221400099
-0.0221355155
-0.022129875
-0.0221230517
-0.0221150288
-0.0221057964
-0.0220953388
-0.0220836364
-0.0220706694
-0.0220564183
-0.0220408614
-0.0220239706
-0.0220057096
-0.021986063
-0.0219650045
-0.0219425072
-0.0219185364
-0.0218930561
-0.0218660306
-0.0218374228
-0.0218071956
-0.0217753115
-0.0217417327
-0.0217064224
-0.0216693478
-0.0216304834
-0.0215897975
-0.0215472584
-0.0215028401
-0.0214565156
-0.0214082578
-0.0213580408
-0.0213058389
-0.0212516274
-0.0211953825
-0.0211370822
-0.0210767071
-0.0210142404
-0.0209496687
-0.0208829815
-0.0208141714
-0.0207432335
-0.020670166
-0.0205949698
-0.0205176486
-0.0204382084
-0.020356658
-0.0202730086
-0.0201872736
-0.0200994684
-0.0200096101
-0.0199177179
-0.019823812
-0.0197279143
-0.0196300478
-0.0195302362
-0.0194285046
-0.0193248786
-0.0192193844
-0.0191120488
-0.0190028994
-0.018891964
-0.0187792716
-0.0186648526
-0.0185487386
-0.0184309629
-0.0183115604
-0.0181905668
-0.0180680193
-0.0179439569
-0.0178184207
-0.017691456
-0.0175631098
-0.0174334292
-0.0173024646
-0.0171702651
-0.0170368816
-0.0169023672
-0.0167667779
-0.0166301714
-0.0164926073
-0.0163541457
-0.0162148473
-0.0160747723
-0.0159339798
-0.0157925272
-0.0156504695
-0.0155078583
-0.0153647415
-0.0152211626
-0.0150771603
-0.0149327684
-0.0147880152
-0.0146429243
-0.0144975138
-0.0143517973
-0.0142057839
-0.0140594788
-0.0139128838
-0.0137659978
-0.0136188175
-0.013471338
-0.0133235528
-0.013175455
-0.0130270375
-0.0128782932
-0.0127292152
-0.0125797977
-0.0124300356
-0.0122799247
-0.012129462
-0.0119786458
-0.0118274754
-0.0116759513
-0.0115240752
-0.0113718496
-0.0112192783
-0.0110663656
-0.010913117
-0.0107595385
-0.0106056367
-0.0104514191
-0.0102968935
-0.010142068
-0.0099869506
-0.00983154942
-0.00967587267
-0.00951992882
-0.00936372662
-0.00920727495
-0.00905058278
-0.0088936591
-0.00873651278
-0.00857915255
-0.008421587
-0.00826382454
-0.00810587335
-0.00794774148
-0.00778943656
-0.00763096512
-0.00747233103
-0.00731353052
-0.00715458701
-0.00699550804
-0.00683629476
-0.00667694793
-0.0065174747
-0.00635788202
-0.00619817421
-0.00603835568
-0.00587843111
-0.00571840496
-0.00555828166
-0.00539806555
-0.00523776088
-0.00507737177
-0.00491690223
-0.00475635614
-0.00459573719
-0.00443504896
-0.00427429488
-0.00411347825
-0.00395260231
-0.00379167016
-0.0036306848
-0.00346964915
-0.00330856607
-0.0031474383
-0.00298626851
-0.00282505934
-0.0026638133
-0.00250253284
-0.0023412204
-0.0021798783
-0.00201850881
-0.00185711421
-0.00169569671
-0.00153425844
-0.00137280153
-0.00121132809
-0.00104984021
-0.000888339778
-0.000726829303
-0.000565309364
-0.000403787506
-0.000242251006
-8.07733776e-05
-0.022154283
-0.0221532743
-0.0221510563
-0.0221476986
-0.0221432242
-0.022137614
-0.0221308362
-0.0221228784
-0.0221137343
-0.0221033901
-0.0220918257
-0.0220790198
-0.0220649504
-0.0220495921
-0.0220329167
-0.0220149106
-0.0219955387
-0.0219747688
-0.0219525558
-0.021928868
-0.0219036738
-0.0218769371
-0.0218486204
-0.021818686
-0.0217870971
-0.0217538199
-0.0217188231
-0.021682075
-0.0216435342
-0.0216031731
-0.0215609624
-0.0215168695
-0.0214708651
-0.0214229216
-0.0213730118
-0.0213211079
-0.0212671823
-0.0212112081
-0.0211531602
-0.0210930163
-0.0210307573
-0.0209663679
-0.0208998363
-0.0208311538
-0.0207603151
-0.0206873175
-0.0206121618
-0.0205348511
-0.0204553919
-0.0203737931
-0.0202900663
-0.0202042257
-0.0201162874
-0.0200262696
-0.0199341923
-0.0198400771
-0.0197439469
-0.0196458256
-0.0195457382
-0.0194437106
-0.0193397695
-0.0192339422
-0.019126257
-0.0190167431
-0.0189054308
-0.0187923509
-0.018677535
-0.0185610149
-0.0184428231
-0.0183229927
-0.0182015586
-0.0180785578
-0.0179540296
-0.0178280169
-0.0177005638
-0.0175717124
-0.0174415084
-0.0173100062
-0.0171772619
-0.0170433296
-0.0169082648
-0.0167721257
-0.0166349732
-0.0164968696
-0.0163578786
-0.0162180647
-0.0160774923
-0.0159362249
-0.0157943243
-0.0156518495
-0.0155088559
-0.0153653944
-0.0152215113
-0.0150772468
-0.0149326355
-0.0147877059
-0.0146424805
-0.0144969759
-0.0143512033
-0.0142051689
-0.0140588745
-0.0139123183
-0.0137654953
-0.0136183982
-0.013471018
-0.0133233448
-0.013175368
-0.013027077
-0.0128784618
-0.0127295132
-0.0125802228
-0.0124305836
-0.01228059
-0.0121302377
-0.011979524
-0.0118284476
-0.0116770085
-0.0115252081
-0.0113730492
-0.0112205356
-0.0110676719
-0.010914464
-0.0107609182
-0.0106070417
-0.0104528417
-0.010298326
-0.0101435028
-0.00998838082
-0.00983296923
-0.00967727754
-0.0095213153
-0.00936509203
-0.00920861702
-0.00905189946
-0.00889494844
-0.00873777289
-0.00858038158
-0.00842278312
-0.00826498592
-0.00810699816
-0.00794882775
-0.00779048227
-0.00763196914
-0.00747329699
-0.00731448302
-0.00715552144
-0.00699641671
-0.00683717443
-0.00667780086
-0.00651830113
-0.00635868041
-0.00619894387
-0.00603909653
-0.00587914327
-0.00571908878
-0.00555893762
-0.00539869424
-0.00523836293
-0.0050779478
-0.00491745286
-0.00475688197
-0.00459623884
-0.00443552705
-0.00427475008
-0.00411391125
-0.0039530138
-0.00379206085
-0.00363105539
-0.0034700003
-0.00330889839
-0.00314775237
-0.00298656484
-0.00282533839
-0.00266407549
-0.00250277854
-0.00234144995
-0.00218009202
-0.00201870699
-0.00185729711
-0.00169586456
-0.00153441146
-0.00137293991
-0.00121145197
-0.00104994972
-0.000888435011
-0.000726910297
-0.000565375993
-0.000403839413
-0.000242286146
-8.07890458e-05
-0.022163486
-0.0221624955
-0.0221603119
-0.0221569834
-0.0221525585
-0.0221470164
-0.022140324
-0.0221324676
-0.0221234403
-0.0221132278
-0.0221018106
-0.0220891678
-0.0220752782
-0.0220601193
-0.0220436666
-0.0220258787
-0.0220067444
-0.0219862138
-0.0219642684
-0.0219408746
-0.0219159915
-0.0218895804
-0.0218616031
-0.0218320214
-0.0218007965
-0.0217678886
-0.0217332588
-0.0216968742
-0.0216586961
-0.0216186907
-0.0215768296
-0.0215330868
-0.0214874306
-0.0214398293
-0.0213902517
-0.0213386664
-0.0212850421
-0.021229349
-0.0211715591
-0.0211116483
-0.0210495961
-0.0209853861
-0.0209190055
-0.0208504447
-0.0207796975
-0.0207067609
-0.0206316349
-0.0205543229
-0.0204748313
-0.0203931696
-0.0203093501
-0.0202233877
-0.0201352995
-0.0200451052
-0.0199528257
-0.0198584842
-0.0197621048
-0.0196637132
-0.0195633358
-0.0194610002
-0.0193567346
-0.0192505679
-0.0191425293
-0.0190326484
-0.0189209549
-0.0188074791
-0.018692252
-0.0185753055
-0.0184566729
-0.018336389
-0.0182144896
-0.0180910123
-0.0179659964
-0.017839482
-0.0177115115
-0.0175821328
-0.0174513967
-0.0173193533
-0.0171860527
-0.0170515504
-0.0169159061
-0.016779182
-0.0166414426
-0.0165027549
-0.0163631875
-0.01622281
-0.0160816921
-0.0159399026
-0.0157975084
-0.0156545734
-0.0155111573
-0.0153673148
-0.0152230947
-0.0150785393
-0.0149336842
-0.0147885577
-0.0146431811
-0.0144975691
-0.0143517301
-0.0142056668
-0.0140593769
-0.0139128543
-0.0137660895
-0.0136190706
-0.0134717842
-0.0133242161
-0.0131763516
-0.0130281768
-0.0128796783
-0.0127308442
-0.0125816638
-0.0124321282
-0.0122822303
-0.0121319647
-0.011981328
-0.0118303184
-0.0116789357
-0.0115271814
-0.0113750583
-0.0112225705
-0.0110697231
-0.0109165222
-0.010762975
-0.010609089
-0.0104548729
-0.0103003357
-0.0101454869
-0.00999033614
-0.00983489297
-0.00967916692
-0.00952316752
-0.00936690441
-0.00921038725
-0.00905362567
-0.0088966292
-0.0087394072
-0.00858196884
-0.00842432311
-0.00826647871
-0.00810844408
-0.00795022746
-0.00779183699
-0.00763328059
-0.00747456558
-0.00731569603
-0.00715667828
-0.00699751832
-0.00683822244
-0.00667879801
-0.00651925037
-0.00635958438
-0.00619980497
-0.00603991691
-0.00587992485
-0.00571983333
-0.00555964676
-0.00539936951
-0.00523900574
-0.00507855951
-0.00491803474
-0.00475743523
-0.00459676458
-0.0044360263
-0.00427522376
-0.00411436018
-0.00395343872
-0.00379246243
-0.00363143426
-0.00347035705
-0.00330923362
-0.00314806664
-0.00298685874
-0.00282561247
-0.00266433031
-0.00250301463
-0.0023416678
-0.0021802921
-0.00201888973
-0.00185746288
-0.00169601371
-0.00153454429
-0.00137305668
-0.00121155291
-0.00105003501
-0.000888504795
-0.000726964698
-0.000565415189
-0.000403863721
-0.000242297164
-8.07894105e-05
-0.0221741459
-0.0221731717
-0.022171018
-0.0221677354
-0.0221633737
-0.0221579122
-0.0221513187
-0.0221435816
-0.0221346955
-0.0221246478
-0.0221134191
-0.0221009886
-0.0220873347
-0.0220724323
-0.0220562524
-0.0220387734
-0.0220199417
-0.0219997508
-0.0219781557
-0.0219551186
-0.0219306046
-0.0219045755
-0.02187699
-0.0218478054
-0.0218169781
-0.0217844659
-0.0217502297
-0.0217142488
-0.0216764775
-0.0216368797
-0.0215954284
-0.021552088
-0.0215068277
-0.0214596155
-0.0214104171
-0.0213591974
-0.0213059212
-0.0212505542
-0.0211930653
-0.0211334271
-0.021071617
-0.0210076168
-0.0209414123
-0.0208729929
-0.0208023516
-0.0207294845
-0.0206543916
-0.020577076
-0.0204975446
-0.0204158073
-0.0203318774
-0.0202457708
-0.020157506
-0.020067104
-0.0199745875
-0.0198799811
-0.0197833109
-0.019684604
-0.0195838884
-0.019481193
-0.0193765469
-0.0192699801
-0.0191615228
-0.0190512057
-0.0189390604
-0.0188251186
-0.0187094127
-0.0185919756
-0.0184728404
-0.0183520412
-0.0182296133
-0.0181055931
-0.017980019
-0.0178529314
-0.0177243739
-0.0175943914
-0.0174630319
-0.0173303455
-0.0171963873
-0.0170612156
-0.0169248917
-0.0167874804
-0.0166490502
-0.0165096728
-0.0163694223
-0.0162283743
-0.0160866052
-0.0159441906
-0.015801204
-0.0156577156
-0.0155137909
-0.0153694895
-0.015224864
-0.0150799592
-0.014934812
-0.0147894504
-0.0146438945
-0.0144981564
-0.0143522408
-0.014206146
-0.0140598648
-0.0139133856
-0.0137666932
-0.0136197703
-0.0134725978
-0.0133251564
-0.0131774269
-0.0130293909
-0.0128810315
-0.0127323333
-0.0125832833
-0.0124338702
-0.0122840854
-0.0121339224
-0.0119833767
-0.0118324462
-0.0116811307
-0.0115294317
-0.0113773523
-0.0112248971
-0.0110720721
-0.0109188842
-0.0107653413
-0.0106114519
-0.0104572251
-0.0103026701
-0.0101477968
-0.00999261497
-0.0098371351
-0.00968136764
-0.00952532316
-0.00936901217
-0.00921244497
-0.00905563164
-0.00889858212
-0.00874130608
-0.00858381295
-0.00842611194
-0.00826821196
-0.00811012169
-0.00795184956
-0.00779340368
-0.00763479149
-0.00747601859
-0.00731709199
-0.00715802111
-0.00699881219
-0.00683946956
-0.00667999784
-0.00652040265
-0.00636068971
-0.00620086427
-0.00604093131
-0.00588089563
-0.00572076185
-0.00556053439
-0.00540021757
-0.00523981552
-0.00507933222
-0.00491877154
-0.00475813724
-0.00459743291
-0.00443666201
-0.00427582793
-0.00411493387
-0.003953983
-0.00379297834
-0.00363192278
-0.00347081911
-0.00330967006
-0.00314847825
-0.0029872462
-0.00282597643
-0.00266467132
-0.0025033332
-0.00234196442
-0.00218056719
-0.0020191437
-0.0018576961
-0.00169622652
-0.00153473701
-0.00137322958
-0.00121170623
-0.00105016896
-0.000888619559
-0.000727060408
-0.00056549189
-0.000403921327
-0.00024233454
-8.08045946e-05
-0.022186242
-0.0221852894
-0.0221831741
-0.0221799482
-0.022175664
-0.0221703017
-0.0221638286
-0.0221562336
-0.0221475118
-0.0221376502
-0.022126629
-0.0221144272
-0.0221010229
-0.0220863917
-0.0220705061
-0.0220533306
-0.0220348564
-0.0220150249
-0.0219938078
-0.0219711695
-0.0219470692
-0.0219214646
-0.0218943127
-0.0218655703
-0.0218351954
-0.0218031467
-0.0217693803
-0.0217338606
-0.0216965525
-0.021657426
-0.0216164326
-0.0215735475
-0.0215287387
-0.0214819682
-0.021433198
-0.0213823891
-0.0213295019
-0.0212744981
-0.0212173429
-0.021158006
-0.0210964625
-0.0210326923
-0.0209666798
-0.0208984132
-0.0208278845
-0.0207550891
-0.0206800266
-0.0206027001
-0.0205231171
-0.0204412881
-0.0203572277
-0.0202709531
-0.0201824846
-0.0200918449
-0.0199990588
-0.0199041529
-0.0198071554
-0.0197080955
-0.0196070034
-0.01950391
-0.0193988465
-0.0192918447
-0.0191829363
-0.019072153
-0.0189595267
-0.0188450892
-0.0187288725
-0.0186109093
-0.0184912328
-0.0183698771
-0.018246877
-0.0181222688
-0.0179960903
-0.0178683813
-0.0177391836
-0.0176085408
-0.0174764999
-0.0173431134
-0.0172084374
-0.0170725305
-0.0169354564
-0.0167972835
-0.0166580849
-0.0165179377
-0.0163769224
-0.0162351219
-0.0160926203
-0.0159495013
-0.0158058466
-0.0156617342
-0.0155172365
-0.0153724192
-0.0152273394
-0.0150820452
-0.0149365746
-0.0147909556
-0.0146452064
-0.0144993358
-0.014353344
-0.0142072238
-0.0140609618
-0.0139145397
-0.0137679355
-0.0136211251
-0.0134740832
-0.0133267843
-0.0131792038
-0.0130313184
-0.0128831071
-0.0127345512
-0.0125856346
-0.0124363441
-0.0122866694
-0.012136603
-0.0119861397
-0.0118352774
-0.0116840157
-0.0115323565
-0.0113803037
-0.0112278625
-0.0110750394
-0.0109218422
-0.0107682796
-0.0106143611
-0.0104600968
-0.0103054975
-0.0101505742
-0.00999533798
-0.00983980008
-0.00968397156
-0.0095278634
-0.00937148648
-0.00921485154
-0.00905796914
-0.00890084964
-0.00874350308
-0.00858593921
-0.00842816753
-0.00827019716
-0.00811203687
-0.007953695
-0.00779517949
-0.00763649815
-0.00747766165
-0.00731867281
-0.00715953824
-0.00700026452
-0.00684085882
-0.00668132712
-0.00652167466
-0.00636190653
-0.00620202777
-0.00604204326
-0.00588195778
-0.0057217759
-0.005561502
-0.00540114039
-0.00524069515
-0.00508017024
-0.00491956947
-0.00475889652
-0.00459815492
-0.00443734805
-0.00427647919
-0.00411555148
-0.00395456797
-0.00379353162
-0.00363244526
-0.00347131166
-0.00331013351
-0.00314891342
-0.0029876539
-0.00282635742
-0.00266502635
-0.00250366298
-0.0023422696
-0.00218084839
-0.00201940146
-0.00185793093
-0.00169643887
-0.00153492728
-0.00137339811
-0.00121185334
-0.0010502949
-0.000888724548
-0.000727144617
-0.000565555493
-0.000403964514
-0.000242358223
-8.08103512e-05
-0.0221997496
-0.0221988221
-0.0221967522
-0.0221935934
-0.0221894007
-0.0221841537
-0.0221778198
-0.0221703884
-0.0221618555
-0.0221522086
-0.0221414284
-0.0221294942
-0.0221163845
-0.0221020746
-0.0220865362
-0.0220697403
-0.0220516398
-0.0220322159
-0.0220114284
-0.0219892371
-0.0219656008
-0.0219404769
-0.0219138209
-0.021885587
-0.0218557282
-0.0218241981
-0.02179096
-0.0217559531
-0.0217191575
-0.021680532
-0.0216400523
-0.0215976789
-0.0215533726
-0.0215070959
-0.0214588072
-0.0214084623
-0.021356016
-0.0213014248
-0.021244649
-0.0211856548
-0.0211244143
-0.0210609053
-0.0209951105
-0.0209270168
-0.0208566151
-0.0207839002
-0.0207088713
-0.0206315318
-0.0205518894
-0.0204699562
-0.0203857477
-0.0202992832
-0.0202105848
-0.0201196776
-0.0200265887
-0.0199313473
-0.0198339841
-0.0197345305
-0.0196330192
-0.019529483
-0.0194239549
-0.0193164682
-0.0192070559
-0.0190957511
-0.0189825869
-0.0188675959
-0.0187508112
-0.0186322654
-0.0185119916
-0.0183900231
-0.0182663941
-0.0181411397
-0.0180142962
-0.0178859016
-0.0177559957
-0.0176246225
-0.0174918295
-0.0173576674
-0.0172221901
-0.0170854582
-0.0169475382
-0.0168085023
-0.0166684283
-0.0165273999
-0.0163855053
-0.0162428363
-0.0160994867
-0.0159555506
-0.0158111199
-0.0156662825
-0.0155211199
-0.0153757052
-0.0152301014
-0.0150843605
-0.0149385222
-0.0147926143
-0.0146466522
-0.0145006406
-0.0143545738
-0.0142084376
-0.0140622109
-0.013915867
-0.0137693758
-0.0136227049
-0.0134758211
-0.0133286921
-0.0131812868
-0.0130335765
-0.0128855354
-0.0127371411
-0.0125883744
-0.01243922
-0.012289666
-0.0121397038
-0.011989328
-0.0118385362
-0.0116873285
-0.0115357074
-0.0113836776
-0.0112312452
-0.011078418
-0.0109252051
-0.0107716165
-0.0106176628
-0.0104633553
-0.0103087055
-0.0101537251
-0.00999842607
-0.00984282041
-0.00968692012
-0.00953073707
-0.00937428298
-0.00921756925
-0.00906060699
-0.00890340701
-0.00874597978
-0.00858833542
-0.00843048369
-0.00827243397
-0.00811419532
-0.00795577653
-0.00779718609
-0.00763843191
-0.0074795188
-0.00732045613
-0.00716125062
-0.00700190874
-0.00684243621
-0.00668283883
-0.00652312232
-0.00636329213
-0.00620335335
-0.0060433109
-0.00588316948
-0.00572293362
-0.00556260766
-0.00540219581
-0.00524170209
-0.00508113037
-0.00492048439
-0.00475976777
-0.00459898396
-0.0044381363
-0.00427722802
-0.00411626221
-0.00395524189
-0.00379416997
-0.00363304924
-0.00347188237
-0.003310672
-0.00314942062
-0.00298813068
-0.00282680458
-0.00266544461
-0.00250405301
-0.00234263202
-0.00218118377
-0.00201971034
-0.0018582138
-0.00169669618
-0.00153515944
-0.00137360549
-0.00121203627
-0.00105045367
-0.00088885939
-0.000727255742
-0.000565643043
-0.000404028553
-0.00024239827
-8.08252564e-05
-0.022214639
-0.0222137401
-0.0222117221
-0.0222086403
-0.0222045521
-0.0221994366
-0.0221932607
-0.0221860142
-0.022177694
-0.0221682874
-0.0221577751
-0.0221461364
-0.0221333494
-0.0221193889
-0.0221042261
-0.0220878288
-0.0220701662
-0.022051199
-0.0220308899
-0.0220091984
-0.0219860811
-0.0219614921
-0.0219353833
-0.0219077055
-0.0218784099
-0.02184745
-0.0218147786
-0.0217803537
-0.0217441384
-0.0217060984
-0.0216661959
-0.0216243928
-0.021580651
-0.0215349286
-0.0214871789
-0.0214373523
-0.021385398
-0.0213312666
-0.0212749136
-0.0212163008
-0.0211553972
-0.0210921782
-0.0210266246
-0.0209587217
-0.020888459
-0.0208158306
-0.0207408351
-0.0206634763
-0.0205837627
-0.0205017074
-0.0204173278
-0.0203306454
-0.0202416847
-0.0201504736
-0.0200570422
-0.0199614226
-0.0198636484
-0.0197637544
-0.0196617758
-0.0195577482
-0.0194517072
-0.0193436882
-0.0192337261
-0.0191218553
-0.0190081097
-0.0188925225
-0.0187751268
-0.0186559552
-0.0185350403
-0.0184124148
-0.0182881118
-0.0181621649
-0.0180346087
-0.0179054796
-0.0177748162
-0.0176426594
-0.0175090531
-0.0173740465
-0.0172376954
-0.017100061
-0.016961211
-0.016821221
-0.0166801743
-0.0165381615
-0.0163952798
-0.0162516318
-0.016107323
-0.0159624603
-0.0158171485
-0.015671488
-0.0155255715
-0.0153794819
-0.0152332897
-0.0150870516
-0.0149408094
-0.0147945901
-0.014648406
-0.0145022561
-0.0143561271
-0.0142099962
-0.0140638323
-0.0139175985
-0.0137712544
-0.0136247579
-0.0134780666
-0.0133311397
-0.0131839389
-0.0130364294
-0.0128885801
-0.0127403646
-0.0125917607
-0.0124427508
-0.0122933218
-0.0121434642
-0.0119931727
-0.0118424451
-0.0116912824
-0.011539688
-0.0113876677
-0.0112352291
-0.0110823814
-0.0109291349
-0.0107755009
-0.0106214913
-0.0104671188
-0.0103123964
-0.0101573371
-0.0100019542
-0.00984626059
-0.00969026929
-0.00953399284
-0.00937744364
-0.00922063369
-0.00906357467
-0.00890627788
-0.0087487542
-0.00859101411
-0.00843306766
-0.00827492449
-0.00811659379
-0.0079580843
-0.00779940433
-0.00764056222
-0.00748156576
-0.00732242102
-0.00716313529
-0.00700371529