/*--------------------------------*- C++ -*----------------------------------*\
| =========                 |                                                 |
| \\      /  F ield         | OpenFOAM: The Open Source CFD Toolbox           |
|  \\    /   O peration     | Version:  v2012                                 |
|   \\  /    A nd           | Website:  www.openfoam.com                      |
|    \\/     M anipulation  |                                                 |
\*---------------------------------------------------------------------------*/
FoamFile
{
    version     2.0;
    format      ascii;
    class       surfaceScalarField;
    location    "2.04";
    object      phi;
}
// * * * * * * * * * * * * * * * * * * * * * * * * * * * * * * * * * * * * * //

dimensions      [0 3 -1 0 0 0 0];
oriented        oriented;


internalField   nonuniform List<scalar> 
56481
(
6.66657389e-07
1.33491164e-11
6.66648583e-07
-1.55149028e-11
6.66659868e-07
-9.88037711e-11
6.66708181e-07
-2.30115997e-10
6.66807301e-07
-4.06662126e-10
6.6696896e-07
-6.22536842e-10
6.67199605e-07
-8.57772445e-10
6.67496038e-07
-1.07636102e-09
6.67843153e-07
-1.23424424e-09
6.68215115e-07
-1.29222759e-09
6.68579633e-07
-1.22783331e-09
6.68903814e-07
-1.04115725e-09
6.69159809e-07
-7.53189791e-10
6.69328758e-07
-3.98766886e-10
6.69402851e-07
-1.47449322e-11
6.69401707e-07
3.48926343e-10
6.69332098e-07
6.7072189e-10
6.69207257e-07
9.22072667e-10
6.6904252e-07
1.08981713e-09
6.68854514e-07
1.16948661e-09
6.68659123e-07
1.16492729e-09
6.68470057e-07
1.08721809e-09
6.68298513e-07
9.53865202e-10
6.68155058e-07
7.85178574e-10
6.6804519e-07
6.0933393e-10
6.67967303e-07
4.58544581e-10
6.67910685e-07
3.6658335e-10
6.67855124e-07
3.64076585e-10
6.67773412e-07
4.71969874e-10
6.67636416e-07
6.95441834e-10
6.67418631e-07
1.02084833e-09
6.67102731e-07
1.41725196e-09
6.66682279e-07
1.84276416e-09
6.66161935e-07
2.25413167e-09
6.65555078e-07
2.61670627e-09
6.64879576e-07
2.91162966e-09
6.64153058e-07
3.13790555e-09
6.63389168e-07
3.30893823e-09
6.62595805e-07
3.44528633e-09
6.61775525e-07
3.56672403e-09
6.60927456e-07
3.68658347e-09
6.60049671e-07
3.80991184e-09
6.59141039e-07
3.93507585e-09
6.58202091e-07
4.05710889e-09
6.5723497e-07
4.17086898e-09
6.56242888e-07
4.27281384e-09
6.55229532e-07
4.36125003e-09
6.54198699e-07
4.4356523e-09
6.53154187e-07
4.49581546e-09
6.52099856e-07
4.54132326e-09
6.51039714e-07
4.57143577e-09
6.49977971e-07
4.58523427e-09
6.48919025e-07
4.58181907e-09
6.47867418e-07
4.56043654e-09
6.46827784e-07
4.52051661e-09
6.45804791e-07
4.46165923e-09
6.44803105e-07
4.38361009e-09
6.43827345e-07
4.28624863e-09
6.42882044e-07
4.16958627e-09
6.41971603e-07
4.03376929e-09
6.41100247e-07
3.87908078e-09
6.40271981e-07
3.70594144e-09
6.39490557e-07
3.51490932e-09
6.38759451e-07
3.30668245e-09
6.38081855e-07
3.08209882e-09
6.37460698e-07
2.84213681e-09
6.36898674e-07
2.58791029e-09
6.36398282e-07
2.32065054e-09
6.35961865e-07
2.04168843e-09
6.35591639e-07
1.75242154e-09
6.35289787e-07
1.4542635e-09
6.35058908e-07
1.14855508e-09
6.34901046e-07
8.36257459e-10
6.34816111e-07
5.1687172e-10
6.34798842e-07
1.95526559e-10
6.34850412e-07
-1.2761752e-10
6.34976911e-07
-4.51031172e-10
6.35177086e-07
-7.71498464e-10
6.35449761e-07
-1.08894987e-09
6.35793236e-07
-1.40155902e-09
6.36205529e-07
-1.70758097e-09
6.36684305e-07
-2.0053869e-09
6.37226776e-07
-2.29323342e-09
6.37829707e-07
-2.56929041e-09
6.38489452e-07
-2.83171046e-09
6.39202003e-07
-3.07866764e-09
6.39963045e-07
-3.30838377e-09
6.40768011e-07
-3.51918787e-09
6.41612132e-07
-3.70957118e-09
6.4249047e-07
-3.87825011e-09
6.43397952e-07
-4.02420518e-09
6.44329405e-07
-4.14671174e-09
6.45279599e-07
-4.24534535e-09
6.46243297e-07
-4.31998878e-09
6.47215322e-07
-4.37082493e-09
6.48190617e-07
-4.39831685e-09
6.49164308e-07
-4.40319634e-09
6.50131758e-07
-4.38644119e-09
6.51088613e-07
-4.34924103e-09
6.52030842e-07
-4.292973e-09
6.52954766e-07
-4.21916753e-09
6.53857082e-07
-4.12946573e-09
6.54734871e-07
-4.02559041e-09
6.55585609e-07
-3.90930605e-09
6.56407164e-07
-3.78238912e-09
6.57197787e-07
-3.64658993e-09
6.57956102e-07
-3.50361537e-09
6.58681088e-07
-3.35509618e-09
6.59372053e-07
-3.20257498e-09
6.60028617e-07
-3.04748771e-09
6.60650679e-07
-2.89115584e-09
6.61238396e-07
-2.73477377e-09
6.61792152e-07
-2.57940992e-09
6.62312531e-07
-2.42600593e-09
6.62800293e-07
-2.27537541e-09
6.63256343e-07
-2.12821307e-09
6.63681709e-07
-1.98510102e-09
6.64077516e-07
-1.8465134e-09
6.64444966e-07
-1.71282847e-09
6.64785314e-07
-1.58433715e-09
6.65099853e-07
-1.46124971e-09
6.653899e-07
-1.34370809e-09
6.65656776e-07
-1.2317938e-09
6.65901803e-07
-1.12553888e-09
6.66126283e-07
-1.02493264e-09
6.66331487e-07
-9.29931552e-10
6.66518639e-07
-8.40465037e-10
6.66688895e-07
-7.56437482e-10
6.66843344e-07
-6.77730834e-10
6.66982999e-07
-6.04204128e-10
6.67108814e-07
-5.35691463e-10
6.67221685e-07
-4.7200249e-10
6.67322465e-07
-4.12924208e-10
6.6741196e-07
-3.58225143e-10
6.6749094e-07
-3.07661502e-10
6.67560131e-07
-2.6098097e-10
6.6762022e-07
-2.17924394e-10
6.67671846e-07
-1.78226416e-10
6.67715602e-07
-1.41612389e-10
6.67752026e-07
-1.07791545e-10
6.67781615e-07
-7.64429253e-11
6.67804952e-07
-4.7207261e-11
6.67823155e-07
-1.97138962e-11
6.67836082e-07
6.02145245e-12
6.67845769e-07
2.999e-11
6.6785306e-07
5.27129026e-11
6.67858311e-07
7.38459096e-11
6.67861534e-07
9.32893188e-11
6.67862699e-07
1.10947713e-10
6.67861779e-07
1.26787332e-10
6.67858772e-07
1.40853022e-10
6.67853715e-07
1.5323501e-10
6.67846695e-07
1.64049717e-10
6.67837832e-07
1.73427791e-10
6.67827269e-07
1.81502762e-10
6.67815163e-07
1.88403033e-10
6.67801673e-07
1.94247792e-10
6.67786955e-07
1.99144956e-10
6.6777116e-07
2.03190336e-10
6.67754427e-07
2.06467858e-10
6.67736887e-07
2.09049842e-10
6.67718654e-07
2.10998407e-10
6.67699834e-07
2.12366557e-10
6.67680515e-07
2.13200369e-10
6.67660775e-07
2.1354011e-10
6.6764068e-07
2.13422205e-10
6.67620285e-07
2.12880356e-10
6.67599636e-07
2.11946776e-10
6.67578776e-07
2.10652484e-10
6.67557739e-07
2.09027932e-10
6.67536561e-07
2.07103017e-10
6.67515271e-07
2.04906554e-10
6.674939e-07
2.02466315e-10
6.67472476e-07
1.99808761e-10
6.67451026e-07
1.96958555e-10
6.67429575e-07
1.93938166e-10
6.67408147e-07
1.90767883e-10
6.67386764e-07
1.87465697e-10
6.67365445e-07
1.84047691e-10
6.6734421e-07
1.80527927e-10
6.67323073e-07
1.76918764e-10
6.67302051e-07
1.73230679e-10
6.67281155e-07
1.69473213e-10
6.67260394e-07
1.65654715e-10
6.67239777e-07
1.61784819e-10
6.67219322e-07
1.57844718e-10
6.67199053e-07
1.53892784e-10
6.67179013e-07
1.49681727e-10
6.67159245e-07
1.46153613e-10
1.39179188e-10
6.66651269e-07
2.86799931e-11
6.66630007e-07
5.7476784e-12
6.66622563e-07
-9.13606846e-11
6.66650544e-07
-2.58096303e-10
6.66733104e-07
-4.8922278e-10
6.66887399e-07
-7.76830969e-10
6.67124668e-07
-1.09504147e-09
6.67444896e-07
-1.39658898e-09
6.67833233e-07
-1.62258131e-09
6.68260577e-07
-1.71957214e-09
6.68688512e-07
-1.65576806e-09
6.69076681e-07
-1.42932622e-09
6.69390207e-07
-1.0667156e-09
6.69605437e-07
-6.13997449e-10
6.69716904e-07
-1.26211978e-10
6.69713628e-07
3.52202748e-10
6.69615378e-07
7.68971654e-10
6.69443207e-07
1.09424385e-09
6.69222021e-07
1.31100355e-09
6.689762e-07
1.41530758e-09
6.68728189e-07
1.41293795e-09
6.68498336e-07
1.31707136e-09
6.68304472e-07
1.14772872e-09
6.68158177e-07
9.31473559e-10
6.68064945e-07
7.02566312e-10
6.68021573e-07
5.01916083e-10
6.68014437e-07
3.73720028e-10
6.68019657e-07
3.5885651e-10
6.68005269e-07
4.86357371e-10
6.67935383e-07
7.65328519e-10
6.67776389e-07
1.17984214e-09
6.67503555e-07
1.69008572e-09
6.67105856e-07
2.24046319e-09
6.66587432e-07
2.77255518e-09
6.65965146e-07
3.23899256e-09
6.65263052e-07
3.61372423e-09
6.64505661e-07
3.89529652e-09
6.63712238e-07
4.10236134e-09
6.62893825e-07
4.26369923e-09
6.62053482e-07
4.40706714e-09
6.61188927e-07
4.55113766e-09
6.60296028e-07
4.70281107e-09
6.5937164e-07
4.85946391e-09
6.5841501e-07
5.01373863e-09
6.5742778e-07
5.15809967e-09
6.56413184e-07
5.28740908e-09
6.55375147e-07
5.39928755e-09
6.54317687e-07
5.4931123e-09
6.53244742e-07
5.56876072e-09
6.5216025e-07
5.62581535e-09
6.51068301e-07
5.66338425e-09
6.4997323e-07
5.68030547e-09
6.48879615e-07
5.67543428e-09
6.47792222e-07
5.64782894e-09
6.46715934e-07
5.59680507e-09
6.45655679e-07
5.52191391e-09
6.44616384e-07
5.42290486e-09
6.43602927e-07
5.29970601e-09
6.42620093e-07
5.15242025e-09
6.41672535e-07
4.98132782e-09
6.40764729e-07
4.78688587e-09
6.39900948e-07
4.56972342e-09
6.39085225e-07
4.33063202e-09
6.38321348e-07
4.070559e-09
6.37612848e-07
3.79059936e-09
6.36962992e-07
3.49199214e-09
6.36374789e-07
3.17611378e-09
6.35850984e-07
2.8444557e-09
6.3539407e-07
2.49860226e-09
6.35006298e-07
2.14019384e-09
6.34689677e-07
1.77088457e-09
6.34445927e-07
1.39230434e-09
6.3427617e-07
1.00601463e-09
6.34179617e-07
6.13425113e-10
6.34159109e-07
2.16034255e-10
6.34215082e-07
-1.83590597e-10
6.34346558e-07
-5.82506628e-10
6.34553941e-07
-9.78882148e-10
6.34836246e-07
-1.37125414e-09
6.35192346e-07
-1.75765903e-09
6.35620624e-07
-2.13585968e-09
6.3611887e-07
-2.50363255e-09
6.36684353e-07
-2.85871671e-09
6.37313858e-07
-3.198795e-09
6.38003688e-07
-3.52154043e-09
6.38749701e-07
-3.82468053e-09
6.39547358e-07
-4.10604145e-09
6.40391781e-07
-4.36361053e-09
6.41277796e-07
-4.59558602e-09
6.42199987e-07
-4.80044106e-09
6.43152746e-07
-4.97696452e-09
6.44130333e-07
-5.12429885e-09
6.45126939e-07
-5.24195138e-09
6.4613676e-07
-5.32980959e-09
6.47154073e-07
-5.38813748e-09
6.48173309e-07
-5.41755327e-09
6.49189128e-07
-5.41901508e-09
6.50196477e-07
-5.39379068e-09
6.51190649e-07
-5.34341246e-09
6.5216732e-07
-5.26964427e-09
6.53122589e-07
-5.17443631e-09
6.54052994e-07
-5.05987043e-09
6.54955526e-07
-4.92812259e-09
6.55827632e-07
-4.78141248e-09
6.56667209e-07
-4.62196634e-09
6.57472589e-07
-4.4519698e-09
6.5824252e-07
-4.27354645e-09
6.58976142e-07
-4.08871776e-09
6.59672956e-07
-3.89938865e-09
6.60332793e-07
-3.70732528e-09
6.60955784e-07
-3.51414646e-09
6.6154232e-07
-3.32130947e-09
6.62093022e-07
-3.13011272e-09
6.62608712e-07
-2.94169572e-09
6.63090375e-07
-2.75703828e-09
6.63539134e-07
-2.57697195e-09
6.63956221e-07
-2.40218779e-09
6.6434295e-07
-2.23324251e-09
6.64700695e-07
-2.07057366e-09
6.65030869e-07
-1.91451073e-09
6.65334902e-07
-1.76528344e-09
6.65614231e-07
-1.62303658e-09
6.65870276e-07
-1.48783881e-09
6.66104432e-07
-1.35969521e-09
6.66318055e-07
-1.23855594e-09
6.66512454e-07
-1.12433003e-09
6.66688884e-07
-1.01689503e-09
6.66848547e-07
-9.16100832e-10
6.66992589e-07
-8.2177233e-10
6.67122093e-07
-7.3370848e-10
6.67238083e-07
-6.51681686e-10
6.67341522e-07
-5.75441165e-10
6.67433314e-07
-5.04716245e-10
6.6751431e-07
-4.39220788e-10
6.67585308e-07
-3.78659433e-10
6.67647058e-07
-3.22731553e-10
6.67700267e-07
-2.71133652e-10
6.67745603e-07
-2.23561662e-10
6.67783701e-07
-1.79710953e-10
6.67815186e-07
-1.39276111e-10
6.67840697e-07
-1.01953828e-10
6.67860945e-07
-6.74553893e-11
6.67876755e-07
-3.55235509e-11
6.67888896e-07
-6.12021413e-12
6.67896781e-07
2.21054682e-11
6.6790122e-07
4.82734558e-11
6.6790266e-07
7.2405812e-11
6.67901531e-07
9.4418263e-11
6.67898191e-07
1.1428829e-10
6.67892871e-07
1.32106784e-10
6.67885738e-07
1.47985884e-10
6.67876925e-07
1.62048917e-10
6.67866544e-07
1.74430081e-10
6.67854706e-07
1.85265961e-10
6.6784152e-07
1.94689107e-10
6.67827098e-07
2.02824487e-10
6.67811558e-07
2.09788261e-10
6.67795015e-07
2.15687421e-10
6.67777585e-07
2.20620389e-10
6.67759377e-07
2.24676513e-10
6.67740491e-07
2.27935156e-10
6.67721023e-07
2.30466448e-10
6.67701058e-07
2.32331806e-10
6.67680673e-07
2.33585778e-10
6.67659936e-07
2.34276836e-10
6.67638909e-07
2.3444916e-10
6.67617646e-07
2.34143581e-10
6.67596194e-07
2.33398728e-10
6.67574595e-07
2.32251211e-10
6.67552887e-07
2.30736276e-10
6.67531102e-07
2.28887838e-10
6.6750927e-07
2.26738004e-10
6.67487419e-07
2.24317285e-10
6.67465573e-07
2.21654731e-10
6.67443753e-07
2.18778564e-10
6.67421979e-07
2.15713028e-10
6.67400267e-07
2.12479637e-10
6.67378635e-07
2.0909777e-10
6.67357097e-07
2.05584973e-10
6.67335669e-07
2.01956754e-10
6.6731436e-07
1.98226875e-10
6.67293184e-07
1.94406981e-10
6.6727215e-07
1.90507344e-10
6.6725127e-07
1.8653511e-10
6.67230555e-07
1.82499768e-10
6.67210011e-07
1.78388542e-10
6.67189635e-07
1.74269048e-10
6.6716942e-07
1.69896499e-10
6.67149278e-07
1.66295613e-10
1.59378116e-10
6.66655134e-07
4.02459275e-11
6.66636802e-07
2.40802266e-11
6.6663666e-07
-9.12192065e-11
6.66672799e-07
-2.94235214e-10
6.66762812e-07
-5.79235498e-10
6.66922208e-07
-9.36227745e-10
6.67160958e-07
-1.33379099e-09
6.67478546e-07
-1.71417679e-09
6.67860677e-07
-2.00471225e-09
6.6827978e-07
-2.13867573e-09
6.68699522e-07
-2.07550974e-09
6.69081604e-07
-1.81140784e-09
6.69392465e-07
-1.37757705e-09
6.69608163e-07
-8.29695215e-10
6.69715495e-07
-2.33544321e-10
6.69727563e-07
3.40134938e-10
6.69652346e-07
8.44188583e-10
6.69506103e-07
1.24048697e-09
6.69309195e-07
1.50791114e-09
6.69084399e-07
1.64010362e-09
6.68853853e-07
1.64348442e-09
6.68637193e-07
1.53373155e-09
6.68450889e-07
1.33403209e-09
6.68307168e-07
1.07519463e-09
6.68212755e-07
7.96979699e-10
6.68166348e-07
5.4832311e-10
6.6815621e-07
3.83858032e-10
6.68159249e-07
3.55816935e-10
6.68143384e-07
5.02222386e-10
6.68073242e-07
8.35471014e-10
6.6791642e-07
1.33666448e-09
6.67649167e-07
1.95733815e-09
6.6726044e-07
2.62919056e-09
6.6675316e-07
3.27983471e-09
6.6614217e-07
3.84998257e-09
6.65449389e-07
4.30650527e-09
6.64697726e-07
4.6469597e-09
6.63905737e-07
4.89435056e-09
6.63084638e-07
5.08479821e-09
6.62238238e-07
5.25346695e-09
6.61365168e-07
5.42420816e-09
6.60462029e-07
5.6059493e-09
6.59526086e-07
5.79540717e-09
6.58556683e-07
5.98314167e-09
6.57555378e-07
6.15940439e-09
6.56525287e-07
6.31750018e-09
6.55470267e-07
6.45430768e-09
6.5439436e-07
6.56901943e-09
6.53301598e-07
6.66152228e-09
6.5219606e-07
6.73135382e-09
6.51081994e-07
6.77745039e-09
6.49963901e-07
6.79839817e-09
6.48846536e-07
6.79279983e-09
6.47734849e-07
6.75951537e-09
6.4663392e-07
6.69773419e-09
6.45548886e-07
6.60694781e-09
6.4448489e-07
6.48690095e-09
6.43447031e-07
6.33756546e-09
6.42440316e-07
6.1591349e-09
6.41469616e-07
5.95202791e-09
6.40539614e-07
5.71688774e-09
6.39654762e-07
5.45457498e-09
6.38819241e-07
5.16615309e-09
6.38036928e-07
4.85287214e-09
6.37311384e-07
4.51614382e-09
6.3664586e-07
4.15751577e-09
6.3604333e-07
3.77864442e-09
6.35506522e-07
3.38126363e-09
6.3503795e-07
2.9671736e-09
6.34639918e-07
2.538226e-09
6.34314496e-07
2.09630704e-09
6.3406347e-07
1.64332994e-09
6.33888253e-07
1.18123148e-09
6.33789715e-07
7.11963686e-10
6.33767916e-07
2.37832565e-10
6.33823098e-07
-2.38772306e-10
6.33956165e-07
-7.15573395e-10
6.34167333e-07
-1.19005054e-09
6.34455923e-07
-1.65984416e-09
6.34820662e-07
-2.12239771e-09
6.35259821e-07
-2.5750191e-09
6.35771174e-07
-3.01498546e-09
6.36351981e-07
-3.43952322e-09
6.36998998e-07
-3.84581254e-09
6.37708494e-07
-4.23103628e-09
6.38476263e-07
-4.59244949e-09
6.39297654e-07
-4.92743258e-09
6.4016761e-07
-5.23356621e-09
6.41080711e-07
-5.50868735e-09
6.42031235e-07
-5.7509644e-09
6.43013218e-07
-5.95894764e-09
6.44020536e-07
-6.13161752e-09
6.45046987e-07
-6.26840149e-09
6.46086372e-07
-6.3691948e-09
6.47132592e-07
-6.43435747e-09
6.48179726e-07
-6.46468726e-09
6.49222112e-07
-6.46140084e-09
6.50254416e-07
-6.42609484e-09
6.51271692e-07
-6.36068853e-09
6.52269428e-07
-6.26738047e-09
6.53243582e-07
-6.14859083e-09
6.54190605e-07
-6.00689257e-09
6.55107446e-07
-5.84496375e-09
6.55991558e-07
-5.66552501e-09
6.56840886e-07
-5.47129353e-09
6.57653841e-07
-5.26492575e-09
6.58429286e-07
-5.04899133e-09
6.59166494e-07
-4.8259256e-09
6.59865118e-07
-4.59801292e-09
6.60525155e-07
-4.3673615e-09
6.61146903e-07
-4.13589441e-09
6.61730927e-07
-3.90533431e-09
6.62278023e-07
-3.67720782e-09
6.62789173e-07
-3.45284663e-09
6.63265523e-07
-3.23338772e-09
6.63708339e-07
-3.0197881e-09
6.64118987e-07
-2.81283541e-09
6.644989e-07
-2.61315615e-09
6.64849561e-07
-2.42123415e-09
6.65172474e-07
-2.23742404e-09
6.65469153e-07
-2.06196211e-09
6.65741102e-07
-1.89498534e-09
6.65989806e-07
-1.73654372e-09
6.66216727e-07
-1.58661593e-09
6.66423289e-07
-1.44511766e-09
6.66610871e-07
-1.31191217e-09
6.66780791e-07
-1.18681535e-09
6.66934291e-07
-1.06960029e-09
6.67072526e-07
-9.60007942e-10
6.67196574e-07
-8.57755703e-10
6.67307435e-07
-7.62542712e-10
6.67406048e-07
-6.74054819e-10
6.67493298e-07
-5.91966293e-10
6.67570019e-07
-5.15941369e-10
6.67636998e-07
-4.45638508e-10
6.67694979e-07
-3.80712957e-10
6.67744664e-07
-3.20818198e-10
6.67786711e-07
-2.6560829e-10
6.67821739e-07
-2.1473886e-10
6.6785033e-07
-1.67867537e-10
6.67873031e-07
-1.24654934e-10
6.67890341e-07
-8.47651829e-11
6.67902667e-07
-4.7849728e-11
6.67910083e-07
-1.35358188e-11
6.67914578e-07
1.7610166e-11
6.67916745e-07
4.61068665e-11
6.67916766e-07
7.23839178e-11
6.67914763e-07
9.64221669e-11
6.67910742e-07
1.1830901e-10
6.67904764e-07
1.38084575e-10
6.67896925e-07
1.55824542e-10
6.67887328e-07
1.71646637e-10
6.67876088e-07
1.85669532e-10
6.6786334e-07
1.98014161e-10
6.67849225e-07
2.08804158e-10
6.67833887e-07
2.18162336e-10
6.67817467e-07
2.26207915e-10
6.67800101e-07
2.33053902e-10
6.67781911e-07
2.38810387e-10
6.67763009e-07
2.43578173e-10
6.67743498e-07
2.4744615e-10
6.67723471e-07
2.50493866e-10
6.6770301e-07
2.5279251e-10
6.67682189e-07
2.54406644e-10
6.67661072e-07
2.55394472e-10
6.67639712e-07
2.55809156e-10
6.67618156e-07
2.55699323e-10
6.67596445e-07
2.55110023e-10
6.67574613e-07
2.54082869e-10
6.67552692e-07
2.52656895e-10
6.67530711e-07
2.50868881e-10
6.67508696e-07
2.48753162e-10
6.67486671e-07
2.46342149e-10
6.6746466e-07
2.43666406e-10
6.67442684e-07
2.40754342e-10
6.67420765e-07
2.37632035e-10
6.67398921e-07
2.34323337e-10
6.67377169e-07
2.30849686e-10
6.67355524e-07
2.27230515e-10
6.67333997e-07
2.2348306e-10
6.67312602e-07
2.19622686e-10
6.67291346e-07
2.15662467e-10
6.6727024e-07
2.1161397e-10
6.67249289e-07
2.07485504e-10
6.67228501e-07
2.03288047e-10
6.6720788e-07
1.99008939e-10
6.6718744e-07
1.94709819e-10
6.67167204e-07
1.9013173e-10
6.67147275e-07
1.86224753e-10
1.78799461e-10
6.66650249e-07
5.66969663e-11
6.66628086e-07
4.62427385e-11
6.66619845e-07
-8.29780736e-11
6.66648162e-07
-3.22551558e-10
6.66733709e-07
-6.64783145e-10
6.6689473e-07
-1.09724825e-09
6.67143379e-07
-1.58243985e-09
6.67480348e-07
-2.05114572e-09
6.67891008e-07
-2.41537307e-09
6.68345667e-07
-2.59333404e-09
6.68804378e-07
-2.53422083e-09
6.69224565e-07
-2.2315949e-09
6.69568877e-07
-1.72188904e-09
6.69811317e-07
-1.07213525e-09
6.69941209e-07
-3.63435999e-10
6.69953616e-07
3.2772732e-10
6.69864488e-07
9.33316771e-10
6.69695709e-07
1.40926582e-09
6.69473228e-07
1.73039225e-09
6.69223283e-07
1.89004824e-09
6.68971075e-07
1.89569271e-09
6.68739509e-07
1.76529726e-09
6.68547941e-07
1.52560041e-09
6.68410468e-07
1.21266816e-09
6.68333674e-07
8.73773491e-10
6.68314255e-07
5.67742211e-10
6.6833757e-07
3.60543108e-10
6.68378359e-07
3.15027292e-10
6.68403013e-07
4.77568607e-10
6.68373142e-07
8.65342405e-10
6.68252172e-07
1.457634e-09
6.68012549e-07
2.19696135e-09
6.67641006e-07
3.00073319e-09
6.67140281e-07
3.78056003e-09
6.66526751e-07
4.46351308e-09
6.65824843e-07
5.00841324e-09
6.65060106e-07
5.4116961e-09
6.64253209e-07
5.70124777e-09
6.63416618e-07
5.92138963e-09
6.62554531e-07
6.11555379e-09
6.61665339e-07
6.31339987e-09
6.60745093e-07
6.52619587e-09
6.59790464e-07
6.75003578e-09
6.5880034e-07
6.97326533e-09
6.57776007e-07
7.18373774e-09
6.56720468e-07
7.3730391e-09
6.55637578e-07
7.53719727e-09
6.54531441e-07
7.67515652e-09
6.5340619e-07
7.7867733e-09
6.52266038e-07
7.87150601e-09
6.51115407e-07
7.92808184e-09
6.4995901e-07
7.95479462e-09
6.48801855e-07
7.94995546e-09
6.47649176e-07
7.91219371e-09
6.46506361e-07
7.84054986e-09
6.45378864e-07
7.73444398e-09
6.4427215e-07
7.59361549e-09
6.43191626e-07
7.41808964e-09
6.42142592e-07
7.20816818e-09
6.41130191e-07
6.96442913e-09
6.4015936e-07
6.68771929e-09
6.39234799e-07
6.3791355e-09
6.38360957e-07
6.03999553e-09
6.37542018e-07
5.67181059e-09
6.36781903e-07
5.27625869e-09
6.36084249e-07
4.85516994e-09
6.35452381e-07
4.41051262e-09
6.34889284e-07
3.94436096e-09
6.34397588e-07
3.45886944e-09
6.33979579e-07
2.95623466e-09
6.33637222e-07
2.43866436e-09
6.33372185e-07
1.90836739e-09
6.33185841e-07
1.36757471e-09
6.33079223e-07
8.18582435e-10
6.3305313e-07
2.63924828e-10
6.33108699e-07
-2.94341233e-10
6.33245622e-07
-8.52496573e-10
6.33463839e-07
-1.40826739e-09
6.33762815e-07
-1.95881989e-09
6.34141625e-07
-2.50120794e-09
6.34598855e-07
-3.03224922e-09
6.35132503e-07
-3.54863323e-09
6.35739952e-07
-4.04697198e-09
6.36417969e-07
-4.52382988e-09
6.3716271e-07
-4.97577693e-09
6.37969732e-07
-5.39947206e-09
6.38834035e-07
-5.79173485e-09
6.39750109e-07
-6.14964013e-09
6.40712006e-07
-6.47058457e-09
6.41713414e-07
-6.752373e-09
6.42747743e-07
-6.99327663e-09
6.43808216e-07
-7.19208992e-09
6.44887966e-07
-7.34815201e-09
6.45980145e-07
-7.46137324e-09
6.4707802e-07
-7.53223299e-09
6.48175081e-07
-7.56174763e-09
6.49265126e-07
-7.55144579e-09
6.50342349e-07
-7.50331826e-09
6.51401406e-07
-7.41974534e-09
6.52437465e-07
-7.30344001e-09
6.53446249e-07
-7.1573745e-09
6.54424051e-07
-6.98469447e-09
6.55367746e-07
-6.78865838e-09
6.56274781e-07
-6.5725608e-09
6.57143164e-07
-6.33967572e-09
6.57971426e-07
-6.09318816e-09
6.58758598e-07
-5.83616285e-09
6.59504161e-07
-5.57148888e-09
6.60208009e-07
-5.30186098e-09
6.60870399e-07
-5.02975128e-09
6.61491905e-07
-4.75740043e-09
6.62073372e-07
-4.48680198e-09
6.62615874e-07
-4.21970962e-09
6.63120669e-07
-3.95764102e-09
6.63589161e-07
-3.70188035e-09
6.6402287e-07
-3.45349717e-09
6.64423395e-07
-3.21336008e-09
6.64792387e-07
-2.98214784e-09
6.65131525e-07
-2.76037238e-09
6.65442497e-07
-2.54839593e-09
6.65726979e-07
-2.34644424e-09
6.65986621e-07
-2.15462737e-09
6.66223028e-07
-1.97295122e-09
6.66437746e-07
-1.80133306e-09
6.66632241e-07
-1.63961304e-09
6.66807904e-07
-1.48757491e-09
6.66966051e-07
-1.34496255e-09
6.67107939e-07
-1.21148886e-09
6.67234773e-07
-1.08684138e-09
6.67347699e-07
-9.70681772e-10
6.67447802e-07
-8.62645737e-10
6.67536097e-07
-7.6234966e-10
6.67613527e-07
-6.69396873e-10
6.67680969e-07
-5.83382776e-10
6.67739232e-07
-5.03902e-10
6.67789071e-07
-4.30551806e-10
6.67831187e-07
-3.62934031e-10
6.67866237e-07
-3.00658794e-10
6.67894846e-07
-2.4334719e-10
6.67917612e-07
-1.90633264e-10
6.67935125e-07
-1.42168855e-10
6.67947993e-07
-9.76331367e-11
6.67956901e-07
-5.67577067e-11
6.6796275e-07
-1.93846719e-11
6.67965141e-07
1.52190989e-11
6.67963912e-07
4.7336435e-11
6.67959786e-07
7.65093082e-11
6.67953195e-07
1.03013115e-10
6.67944616e-07
1.26887989e-10
6.67934396e-07
1.48305349e-10
6.67922706e-07
1.67514447e-10
6.67909652e-07
1.84700516e-10
6.67895347e-07
1.99974865e-10
6.67879899e-07
2.13461265e-10
6.67863413e-07
2.25290198e-10
6.67845985e-07
2.35590412e-10
6.67827708e-07
2.44485529e-10
6.67808669e-07
2.52092638e-10
6.67788957e-07
2.58522074e-10
6.67768659e-07
2.63876429e-10
6.67747856e-07
2.68249364e-10
6.67726624e-07
2.71726132e-10
6.67705032e-07
2.74383666e-10
6.67683147e-07
2.76292102e-10
6.67661026e-07
2.77515017e-10
6.67638725e-07
2.78110886e-10
6.6761629e-07
2.78133653e-10
6.67593767e-07
2.77633708e-10
6.67571192e-07
2.76657899e-10
6.67548598e-07
2.75250266e-10
6.67526015e-07
2.73452193e-10
6.67503466e-07
2.71302049e-10
6.67480973e-07
2.68835659e-10
6.67458553e-07
2.66086363e-10
6.67436222e-07
2.63084655e-10
6.67413996e-07
2.59858503e-10
6.67391886e-07
2.56433414e-10
6.67369903e-07
2.52832233e-10
6.67348058e-07
2.49075719e-10
6.67326359e-07
2.45182366e-10
6.67304813e-07
2.41168776e-10
6.67283426e-07
2.37049192e-10
6.67262203e-07
2.3283643e-10
6.67241149e-07
2.28539919e-10
6.67220264e-07
2.24172939e-10
6.67199548e-07
2.19724564e-10
6.67178988e-07
2.15270641e-10
6.67158557e-07
2.10562461e-10
6.67138117e-07
2.06664217e-10
1.99439021e-10
6.66652423e-07
7.08744321e-11
6.66629179e-07
6.94866467e-11
6.66622317e-07
-7.61168749e-11
6.66653578e-07
-3.53812437e-10
6.66743308e-07
-7.54512617e-10
6.66909442e-07
-1.26338294e-09
6.67163701e-07
-1.83669818e-09
6.6750641e-07
-2.39385517e-09
6.67922896e-07
-2.8318587e-09
6.68383856e-07
-3.05429421e-09
6.68850083e-07
-3.00044776e-09
6.69279729e-07
-2.66124093e-09
6.69635727e-07
-2.07788723e-09
6.69891437e-07
-1.32784494e-09
6.70033337e-07
-5.05335935e-10
6.70062704e-07
2.9836024e-10
6.6999084e-07
1.00518058e-09
6.69837989e-07
1.56211727e-09
6.69628964e-07
1.93941718e-09
6.69390228e-07
2.1287839e-09
6.69147468e-07
2.13845306e-09
6.68924024e-07
1.98874082e-09
6.6873965e-07
1.70997438e-09
6.68609008e-07
1.34331032e-09
6.68539638e-07
9.43143629e-10
6.68529613e-07
5.77767079e-10
6.68565508e-07
3.24648518e-10
6.68621439e-07
2.59096181e-10
6.68661472e-07
4.37535713e-10
6.68646214e-07
8.80599974e-10
6.68539195e-07
1.56465313e-09
6.6831302e-07
2.42313633e-09
6.67954068e-07
3.35968563e-09
6.67464217e-07
4.27041086e-09
6.6685886e-07
5.06886995e-09
6.66161679e-07
5.70559394e-09
6.65397895e-07
6.17548055e-09
6.64588228e-07
6.51091422e-09
6.63745415e-07
6.76420266e-09
6.62873948e-07
6.98702157e-09
6.6197241e-07
7.21493779e-09
6.6103692e-07
7.46168573e-09
6.60064136e-07
7.7228192e-09
6.59052915e-07
7.98448704e-09
6.58004541e-07
8.23211109e-09
6.56922076e-07
8.45550412e-09
6.55809484e-07
8.64978996e-09
6.54671019e-07
8.8136215e-09
6.53511003e-07
8.94678937e-09
6.5233387e-07
9.04863893e-09
6.51144298e-07
9.11765337e-09
6.49947293e-07
9.15179982e-09
6.48748182e-07
9.14906688e-09
6.47552548e-07
9.10782747e-09
6.46366145e-07
9.02695299e-09
6.45194812e-07
8.90577658e-09
6.44044407e-07
8.74402012e-09
6.42920745e-07
8.54175227e-09
6.41829537e-07
8.29937601e-09
6.40776339e-07
8.01762747e-09
6.39766488e-07
7.69756953e-09
6.38805049e-07
7.34057489e-09
6.37896747e-07
6.94829776e-09
6.37045918e-07
6.52263968e-09
6.36256479e-07
6.06569723e-09
6.35531943e-07
5.5797057e-09
6.3487547e-07
5.06698564e-09
6.34289935e-07
4.52989625e-09
6.33777976e-07
3.97082834e-09
6.33342007e-07
3.39220388e-09
6.32984198e-07
2.79647353e-09
6.3270642e-07
2.18614539e-09
6.3251018e-07
1.5638143e-09
6.32396648e-07
9.32114596e-10
6.32366915e-07
2.93657853e-10
6.32421356e-07
-3.48782447e-10
6.32561046e-07
-9.92186212e-10
6.32786125e-07
-1.6333464e-09
6.33096148e-07
-2.26884293e-09
6.3349012e-07
-2.89517951e-09
6.33966557e-07
-3.50868669e-09
6.34523427e-07
-4.10550291e-09
6.35158086e-07
-4.68163088e-09
6.35867256e-07
-5.23300004e-09
6.36647006e-07
-5.75552749e-09
6.37492748e-07
-6.24521361e-09
6.38399246e-07
-6.69823296e-09
6.3936066e-07
-7.11105408e-09
6.40370602e-07
-7.48052635e-09
6.41422219e-07
-7.80399004e-09
6.42508296e-07
-8.07935364e-09
6.43621373e-07
-8.30516747e-09
6.44753874e-07
-8.48065294e-09
6.45898235e-07
-8.60573434e-09
6.47047037e-07
-8.68103475e-09
6.48193125e-07
-8.70783499e-09
6.49329718e-07
-8.68803913e-09
6.50450509e-07
-8.62410946e-09
6.51549738e-07
-8.51897442e-09
6.52622253e-07
-8.37595437e-09
6.53663547e-07
-8.1986685e-09
6.5466978e-07
-7.99092819e-09
6.55637782e-07
-7.75666061e-09
6.56565037e-07
-7.499815e-09
6.57449655e-07
-7.22429376e-09
6.58290338e-07
-6.93387125e-09
6.59086332e-07
-6.63215671e-09
6.59837374e-07
-6.32253089e-09
6.60543638e-07
-6.00812576e-09
6.61205682e-07
-5.69179432e-09
6.61824384e-07
-5.37610315e-09
6.624009e-07
-5.06331756e-09
6.62936603e-07
-4.75541278e-09
6.63433043e-07
-4.45408099e-09
6.638919e-07
-4.16073706e-09
6.64314945e-07
-3.87654274e-09
6.6470401e-07
-3.60242496e-09
6.65060953e-07
-3.33909065e-09
6.65387635e-07
-3.08705411e-09
6.65685896e-07
-2.8466572e-09
6.65957538e-07
-2.61808592e-09
6.66204308e-07
-2.40139753e-09
6.66427897e-07
-2.19654011e-09
6.6662994e-07
-2.00337644e-09
6.66812023e-07
-1.82169586e-09
6.66975673e-07
-1.65122548e-09
6.67122344e-07
-1.49163275e-09
6.67253385e-07
-1.34253028e-09
6.67370037e-07
-1.2034932e-09
6.6747343e-07
-1.07407493e-09
6.67564603e-07
-9.53818244e-10
6.67644517e-07
-8.42263693e-10
6.67714071e-07
-7.389508e-10
6.67774107e-07
-6.43418985e-10
6.67825415e-07
-5.55209978e-10
6.67868735e-07
-4.73871954e-10
6.67904761e-07
-3.98960613e-10
6.67934145e-07
-3.3004226e-10
6.67957493e-07
-2.66695629e-10
6.67975374e-07
-2.08514088e-10
6.67988314e-07
-1.55109036e-10
6.67996791e-07
-1.06109827e-10
6.68001185e-07
-6.11521553e-11
6.68001629e-07
-1.98286456e-11
6.67999082e-07
1.77667358e-11
6.67994609e-07
5.18089625e-11
6.67988021e-07
8.30976264e-11
6.67979456e-07
1.11578029e-10
6.67969027e-07
1.37317312e-10
6.67956847e-07
1.60484786e-10
6.67943108e-07
1.81253548e-10
6.67928012e-07
1.99796744e-10
6.67911717e-07
2.1626984e-10
6.67894357e-07
2.30821552e-10
6.67876051e-07
2.43595549e-10
6.67856912e-07
2.54729401e-10
6.67837044e-07
2.64354257e-10
6.67816542e-07
2.7259421e-10
6.67795499e-07
2.79565556e-10
6.67773998e-07
2.85376764e-10
6.6775212e-07
2.90127998e-10
6.67729934e-07
2.93911742e-10
6.67707505e-07
2.96812713e-10
6.67684888e-07
2.98909094e-10
6.67662131e-07
3.00272233e-10
6.67639274e-07
3.00967679e-10
6.67616352e-07
3.01055354e-10
6.67593396e-07
3.00590396e-10
6.6757043e-07
2.99623183e-10
6.6754748e-07
2.98200331e-10
6.67524567e-07
2.96365166e-10
6.67501712e-07
2.94157636e-10
6.67478932e-07
2.91615044e-10
6.67456246e-07
2.88772216e-10
6.6743367e-07
2.85661134e-10
6.67411217e-07
2.82311406e-10
6.673889e-07
2.78750296e-10
6.6736673e-07
2.75002381e-10
6.67344716e-07
2.71090124e-10
6.67322864e-07
2.67033664e-10
6.67301182e-07
2.62851199e-10
6.67279673e-07
2.58558468e-10
6.67258339e-07
2.54169756e-10
6.67237183e-07
2.49695865e-10
6.67216205e-07
2.45151457e-10
6.67195404e-07
2.40525895e-10
6.67174783e-07
2.35890781e-10
6.6715436e-07
2.30985627e-10
6.67134247e-07
2.26776981e-10
2.19058571e-10
6.66650776e-07
8.67984796e-11
6.66627753e-07
9.25094628e-11
6.6662023e-07
-6.8593334e-11
6.66651758e-07
-3.85340658e-10
6.66744066e-07
-8.46820382e-10
6.66916235e-07
-1.43555209e-09
6.67180918e-07
-2.10138118e-09
6.67538893e-07
-2.75183042e-09
6.67975122e-07
-3.26808719e-09
6.68459035e-07
-3.53820762e-09
6.68949526e-07
-3.49093927e-09
6.69402746e-07
-3.11446002e-09
6.69779742e-07
-2.45488324e-09
6.70052215e-07
-1.60031856e-09
6.70205391e-07
-6.58511593e-10
6.70241645e-07