/*--------------------------------*- C++ -*----------------------------------*\
| =========                 |                                                 |
| \\      /  F ield         | OpenFOAM: The Open Source CFD Toolbox           |
|  \\    /   O peration     | Version:  v2012                                 |
|   \\  /    A nd           | Website:  www.openfoam.com                      |
|    \\/     M anipulation  |                                                 |
\*---------------------------------------------------------------------------*/
FoamFile
{
    version     2.0;
    format      ascii;
    class       surfaceScalarField;
    location    "2.04";
    object      phiHbyA;
}
// * * * * * * * * * * * * * * * * * * * * * * * * * * * * * * * * * * * * * //

dimensions      [0 3 -1 0 0 0 0];
oriented        oriented;


internalField   nonuniform List<scalar> 
56481
(
6.66657802e-07
1.27160326e-11
6.66649464e-07
-1.61193807e-11
6.66661276e-07
-9.93240303e-11
6.66710119e-07
-2.30564314e-10
6.66809773e-07
-4.07051458e-10
6.66971982e-07
-6.22872653e-10
6.6720319e-07
-8.58059402e-10
6.67500198e-07
-1.07660826e-09
6.67847902e-07
-1.23446701e-09
6.68220464e-07
-1.2924454e-09
6.68585588e-07
-1.22806714e-09
6.6891038e-07
-1.04142683e-09
6.69166987e-07
-7.53511855e-10
6.69336542e-07
-3.99157924e-10
6.69411198e-07
-1.52207879e-11
6.69410682e-07
3.4843738e-10
6.69341721e-07
6.70218526e-10
6.69217556e-07
9.21551081e-10
6.69053504e-07
1.08925668e-09
6.68866195e-07
1.16887863e-09
6.6867152e-07
1.1642687e-09
6.6848319e-07
1.08650309e-09
6.68312396e-07
9.53083792e-10
6.68169696e-07
7.84316534e-10
6.68060587e-07
6.08384707e-10
6.67983468e-07
4.57511583e-10
6.67927633e-07
3.65471623e-10
6.67872874e-07
3.62887104e-10
6.67791982e-07
4.70699145e-10
6.67655825e-07
6.94082054e-10
6.67438889e-07
1.01939012e-09
6.67123846e-07
1.41568783e-09
6.66704258e-07
1.8410896e-09
6.66184781e-07
2.25234523e-09
6.65578797e-07
2.61480948e-09
6.64904175e-07
2.90962647e-09
6.64178543e-07
3.13580146e-09
6.63415546e-07
3.30673946e-09
6.62623085e-07
3.44299914e-09
6.61803712e-07
3.56435444e-09
6.60956556e-07
3.68413724e-09
6.60079687e-07
3.80739476e-09
6.59171974e-07
3.93249403e-09
6.58233945e-07
4.05446897e-09
6.57267744e-07
4.16817824e-09
6.56276579e-07
4.27008016e-09
6.55264138e-07
4.35848175e-09
6.54234216e-07
4.43285814e-09
6.53190613e-07
4.49300438e-09
6.52137185e-07
4.53850447e-09
6.5107794e-07
4.56861864e-09
6.50017088e-07
4.58242831e-09
6.48959025e-07
4.57903385e-09
6.47908295e-07
4.55768164e-09
6.46869528e-07
4.51780155e-09
6.45847395e-07
4.45899342e-09
6.4484656e-07
4.38100271e-09
6.43871641e-07
4.28370859e-09
6.42927172e-07
4.16712211e-09
6.42017553e-07
4.03138911e-09
6.41147008e-07
3.87679215e-09
6.40319543e-07
3.70375136e-09
6.39538909e-07
3.51282413e-09
6.38808581e-07
3.30470785e-09
6.38131752e-07
3.08023988e-09
6.3751135e-07
2.84039804e-09
6.36950067e-07
2.58629574e-09
6.36450403e-07
2.319164e-09
6.36014699e-07
2.04033351e-09
6.35645173e-07
1.75120168e-09
6.35344009e-07
1.45318194e-09
6.35113813e-07
1.14761386e-09
6.34956619e-07
8.35452696e-10
6.34872327e-07
5.1619714e-10
6.34855649e-07
1.94977489e-10
6.34907789e-07
-1.28022161e-10
6.35034827e-07
-4.51302005e-10
6.35235535e-07
-7.71618758e-10
6.3550874e-07
-1.08891379e-09
6.35852724e-07
-1.40137341e-09
6.36265501e-07
-1.70725097e-09
6.36744739e-07
-2.00491579e-09
6.37287652e-07
-2.29262558e-09
6.37891002e-07
-2.56855138e-09
6.38551142e-07
-2.83084645e-09
6.39264067e-07
-3.07768548e-09
6.40025461e-07
-3.30729107e-09
6.40830758e-07
-3.51799304e-09
6.41675188e-07
-3.70828335e-09
6.42553817e-07
-3.8768791e-09
6.43461572e-07
-4.0227614e-09
6.44393281e-07
-4.14520612e-09
6.45343714e-07
-4.24378918e-09
6.46307637e-07
-4.31839356e-09
6.47279875e-07
-4.36920221e-09
6.48255371e-07
-4.39667807e-09
6.49229253e-07
-4.40155266e-09
6.50196885e-07
-4.38480333e-09
6.51153914e-07
-4.3476191e-09
6.52096312e-07
-4.29137642e-09
6.530204e-07
-4.2176049e-09
6.53922875e-07
-4.12794473e-09
6.54800821e-07
-4.0241178e-09
6.55651713e-07
-3.90788758e-09
6.5647342e-07
-3.78102956e-09
6.57264194e-07
-3.64529307e-09
6.5802266e-07
-3.50238408e-09
6.58747795e-07
-3.35393241e-09
6.59438909e-07
-3.20147986e-09
6.60095622e-07
-3.0464616e-09
6.60717833e-07
-2.89019843e-09
6.61305699e-07
-2.7338841e-09
6.61859602e-07
-2.57858653e-09
6.62380129e-07
-2.42524689e-09
6.62868038e-07
-2.27467841e-09
6.63324234e-07
-2.12757552e-09
6.63749745e-07
-1.98452007e-09
6.64145695e-07
-1.84598603e-09
6.64513287e-07
-1.71235154e-09
6.64853774e-07
-1.58390747e-09
6.65168452e-07
-1.46086407e-09
6.65458634e-07
-1.34336331e-09
6.65725644e-07
-1.23148678e-09
6.65970801e-07
-1.12526661e-09
6.66195409e-07
-1.02469228e-09
6.6640074e-07
-9.29720451e-10
6.66588014e-07
-8.4028077e-10
6.66758391e-07
-7.56277907e-10
6.66912956e-07
-6.77594094e-10
6.67052725e-07
-6.0408861e-10
6.6717865e-07
-5.35595747e-10
6.67291628e-07
-4.71925288e-10
6.67392511e-07
-4.12864307e-10
6.67482105e-07
-3.58181357e-10
6.67561181e-07
-3.07632651e-10
6.67630465e-07
-2.60965869e-10
6.67690642e-07
-2.17921854e-10
6.67742354e-07
-1.78235274e-10
6.67786193e-07
-1.41631582e-10
6.67822698e-07
-1.07820419e-10
6.67852365e-07
-7.64822922e-11
6.67875769e-07
-4.7258618e-11
6.67894028e-07
-1.9774061e-11
6.67907012e-07
5.96110312e-12
6.67916763e-07
2.99345382e-11
6.67924118e-07
5.26669734e-11
6.67929433e-07
7.38101427e-11
6.67932719e-07
9.32611827e-11
6.67933943e-07
1.10924682e-10
6.6793308e-07
1.26767457e-10
6.67930127e-07
1.40834799e-10
6.67925123e-07
1.53217422e-10
6.67918152e-07
1.64032209e-10
6.67909336e-07
1.73410137e-10
6.67898818e-07
1.81484917e-10
6.67886754e-07
1.88385035e-10
6.67873304e-07
1.94229712e-10
6.67858625e-07
1.99126876e-10
6.67842867e-07
2.03172347e-10
6.67826169e-07
2.06450057e-10
6.67808661e-07
2.09032323e-10
6.6779046e-07
2.10981255e-10
6.6777167e-07
2.12349845e-10
6.6775238e-07
2.13184152e-10
6.67732667e-07
2.13524427e-10
6.67712598e-07
2.1340708e-10
6.67692227e-07
2.12865799e-10
6.67671601e-07
2.11932787e-10
6.67650762e-07
2.10639055e-10
6.67629746e-07
2.09015053e-10
6.67608587e-07
2.07090676e-10
6.67587315e-07
2.04894737e-10
6.67565961e-07
2.0245501e-10
6.67544553e-07
1.99797955e-10
6.67523118e-07
1.9694823e-10
6.67501681e-07
1.93928299e-10
6.67480265e-07
1.90758454e-10
6.67458893e-07
1.8745669e-10
6.67437585e-07
1.84039093e-10
6.67416359e-07
1.80519728e-10
6.67395231e-07
1.76910961e-10
6.67374216e-07
1.73223271e-10
6.67353327e-07
1.69466204e-10
6.67332572e-07
1.65648097e-10
6.67311959e-07
1.61778551e-10
6.67291509e-07
1.57838754e-10
6.67271241e-07
1.53887172e-10
6.67251207e-07
1.49676603e-10
6.67231414e-07
1.46149637e-10
1.39176874e-10
6.6665172e-07
2.75398164e-11
6.66630999e-07
4.60355128e-12
6.66624068e-07
-9.25457072e-11
6.6665256e-07
-2.59299429e-10
6.66735648e-07
-4.9044455e-10
6.66890486e-07
-7.78072766e-10
6.67128305e-07
-1.09630507e-09
6.67449087e-07
-1.39787369e-09
6.67837987e-07
-1.62388448e-09
6.68265904e-07
-1.72089042e-09
6.6869442e-07
-1.65709793e-09
6.69083177e-07
-1.43066436e-09
6.69397293e-07
-1.0680593e-09
6.69613109e-07
-6.15340285e-10
6.69725234e-07
-1.27536595e-10
6.69722583e-07
3.50858037e-10
6.69624977e-07
7.6760838e-10
6.69453454e-07
1.09285302e-09
6.69232941e-07
1.30959456e-09
6.68987813e-07
1.41388007e-09
6.68740511e-07
1.41148494e-09
6.6851138e-07
1.31558593e-09
6.68318248e-07
1.14620705e-09
6.681727e-07
9.29918077e-10
6.68080231e-07
7.00979545e-10
6.68037634e-07
5.00297804e-10
6.68031282e-07
3.72069379e-10
6.68037299e-07
3.57175099e-10
6.68023722e-07
4.84648769e-10
6.67954661e-07
7.63597431e-10
6.67796506e-07
1.17809274e-09
6.67524524e-07
1.68832e-09
6.67127686e-07
2.23868185e-09
6.66610133e-07
2.77075867e-09
6.65988725e-07
3.23718143e-09
6.65287517e-07
3.61189926e-09
6.6453102e-07
3.89345875e-09
6.63738499e-07
4.10051214e-09
6.62920995e-07
4.26184035e-09
6.62081568e-07
4.4052006e-09
6.61217934e-07
4.54926568e-09
6.6032596e-07
4.70093593e-09
6.59402499e-07
4.85758786e-09
6.58446798e-07
5.01186381e-09
6.57460497e-07
5.15622808e-09
6.5644683e-07
5.28554261e-09
6.55409719e-07
5.39742802e-09
6.54353183e-07
5.49126143e-09
6.53281158e-07
5.5669202e-09
6.52197581e-07
5.62398678e-09
6.51106542e-07
5.66156915e-09
6.50012375e-07
5.67850525e-09
6.48919656e-07
5.67365024e-09
6.47833152e-07
5.64606229e-09
6.46757745e-07
5.59505689e-09
6.45698361e-07
5.52018522e-09
6.44659929e-07
5.42119658e-09
6.43647324e-07
5.298019e-09
6.42665333e-07
5.15075534e-09
6.41718606e-07
4.97968586e-09
6.40811622e-07
4.78526776e-09
6.39948649e-07
4.56813014e-09
6.39133724e-07
4.32906473e-09
6.38370633e-07
4.06901905e-09
6.37662905e-07
3.78908829e-09
6.37013809e-07
3.49051169e-09
6.36426352e-07
3.17466571e-09
6.35903279e-07
2.84304172e-09
6.35447084e-07
2.49722388e-09
6.35060016e-07
2.13885228e-09
6.34744085e-07
1.76958058e-09
6.34501013e-07
1.39103765e-09
6.34331916e-07
1.00478266e-09
6.34235999e-07
6.12224224e-10
6.34216107e-07
2.14862854e-10
6.34272636e-07
-1.84739585e-10
6.34404672e-07
-5.83606786e-10
6.34612597e-07
-9.7993124e-10
6.34895422e-07
-1.3722508e-09
6.35252025e-07
-1.75860052e-09
6.35680783e-07
-2.13674404e-09
6.36179486e-07
-2.50445844e-09
6.36745402e-07
-2.85948325e-09
6.37375317e-07
-3.19950177e-09
6.38065534e-07
-3.52218757e-09
6.3881191e-07
-3.82526883e-09
6.39609909e-07
-4.10657235e-09
6.4045465e-07
-4.36408614e-09
6.41340962e-07
-4.59600906e-09
6.4226343e-07
-4.80081482e-09
6.43216447e-07
-4.97729281e-09
6.44194275e-07
-5.12458587e-09
6.45191105e-07
-5.2422017e-09
6.46201136e-07
-5.330028e-09
6.47218646e-07
-5.3883289e-09
6.48238068e-07
-5.41772267e-09
6.49254064e-07
-5.41916735e-09
6.50261582e-07
-5.39393054e-09
6.51255915e-07
-5.3435444e-09
6.52232744e-07
-5.26977243e-09
6.53188166e-07
-5.17456447e-09
6.54118721e-07
-5.06000192e-09
6.55021402e-07
-4.92826028e-09
6.55893656e-07
-4.78155877e-09
6.56733381e-07
-4.62212314e-09
6.57538908e-07
-4.45213855e-09
6.58308987e-07
-4.27372815e-09
6.59042756e-07
-4.08891299e-09
6.59739719e-07
-3.89959762e-09
6.60399706e-07
-3.70754785e-09
6.61022847e-07
-3.51438221e-09
6.61609533e-07
-3.32155774e-09
6.62160387e-07
-3.13037266e-09
6.62676227e-07
-2.94196633e-09
6.6315804e-07
-2.75731846e-09
6.63606949e-07
-2.57726051e-09
6.64024184e-07
-2.40248351e-09
6.64411061e-07
-2.23354418e-09
6.64768952e-07
-2.07088009e-09
6.6509927e-07
-1.91482077e-09
6.65403446e-07
-1.76559601e-09
6.65682914e-07
-1.62335067e-09
6.65939096e-07
-1.4881535e-09
6.66173387e-07
-1.36000968e-09
6.66387143e-07
-1.23886946e-09
6.6658167e-07
-1.12464196e-09
6.66758226e-07
-1.01720474e-09
6.66918011e-07
-9.16407681e-10
6.67062172e-07
-8.22075615e-10
6.67191792e-07
-7.34007457e-10
6.67307894e-07
-6.51975613e-10
6.67411441e-07
-5.75729352e-10
6.67503338e-07
-5.04998087e-10
6.67584435e-07
-4.39495784e-10
6.6765553e-07
-3.78927189e-10
6.67717375e-07
-3.22991775e-10
6.67770674e-07
-2.71386138e-10
6.67816097e-07
-2.23806295e-10
6.67854279e-07
-1.79947719e-10
6.67885844e-07
-1.39505128e-10
6.67911431e-07
-1.02175304e-10
6.67931749e-07
-6.76689674e-11
6.67947626e-07
-3.57272614e-11
6.67959833e-07
-6.31220567e-12
6.67967786e-07
2.19285336e-11
6.67972292e-07
4.81048894e-11
6.67973792e-07
7.22406066e-11
6.67972722e-07
9.42572899e-11
6.67969439e-07
1.14133704e-10
6.67964174e-07
1.3195968e-10
6.67957095e-07
1.47846821e-10
6.67948332e-07
1.61918089e-10
6.67938e-07
1.74307253e-10
6.67926209e-07
1.8515062e-10
6.67913067e-07
1.94580644e-10
6.67898688e-07
2.02722316e-10
6.67883189e-07
2.09691881e-10
6.67866685e-07
2.15596435e-10
6.67849292e-07
2.20534484e-10
6.67831118e-07
2.24595412e-10
6.67812266e-07
2.27858603e-10
6.6779283e-07
2.30394207e-10
6.67772894e-07
2.3226366e-10
6.67752538e-07
2.33521533e-10
6.67731828e-07
2.34216318e-10
6.67710827e-07
2.34392218e-10
6.67689588e-07
2.34090078e-10
6.67668159e-07
2.33348539e-10
6.67646582e-07
2.32204223e-10
6.67624894e-07
2.3069238e-10
6.67603128e-07
2.28846927e-10
6.67581315e-07
2.26699973e-10
6.67559481e-07
2.24282032e-10
6.67537651e-07
2.2162216e-10
6.67515845e-07
2.18748593e-10
6.67494084e-07
2.15685587e-10
6.67472385e-07
2.12454656e-10
6.67450764e-07
2.09075184e-10
6.67429237e-07
2.0556472e-10
6.67407818e-07
2.01938776e-10
6.67386518e-07
1.98211116e-10
6.6736535e-07
1.94393389e-10
6.67344322e-07
1.90495872e-10
6.67323447e-07
1.86525716e-10
6.67302737e-07
1.82492435e-10
6.67282197e-07
1.78383271e-10
6.67261822e-07
1.74265814e-10
6.67241614e-07
1.69895236e-10
6.67221448e-07
1.66295842e-10
1.59379165e-10
6.6665558e-07
3.86600451e-11
6.6663774e-07
2.25052764e-11
6.6663814e-07
-9.27316822e-11
6.6667479e-07
-2.95717315e-10
6.66765328e-07
-5.80690295e-10
6.66925267e-07
-9.37660444e-10
6.67164567e-07
-1.33520762e-09
6.67482713e-07
-1.71558583e-09
6.67865411e-07
-2.00612502e-09
6.68285092e-07
-2.14010532e-09
6.68705419e-07
-2.0769698e-09
6.69088092e-07
-1.81291135e-09
6.69399552e-07
-1.37913538e-09
6.69615858e-07
-8.31319522e-10
6.69723798e-07
-2.35246831e-10
6.69736494e-07
3.38359936e-10
6.69661908e-07
8.42338556e-10
6.69516326e-07
1.23857063e-09
6.69320092e-07
1.50592099e-09
6.69095979e-07
1.638036e-09
6.68866132e-07
1.64134103e-09
6.68650189e-07
1.53151334e-09
6.68464621e-07
1.33173737e-09
6.6832165e-07
1.07281917e-09
6.68227999e-07
7.94517459e-10
6.68182366e-07
5.4576848e-10
6.68173015e-07
3.81207377e-10
6.68176855e-07
3.53067997e-10
6.68161807e-07
4.99374258e-10
6.68092496e-07
8.32521263e-10
6.67936515e-07
1.33360944e-09
6.67670115e-07
1.9541758e-09
6.6728225e-07
2.62592038e-09
6.66775841e-07
3.27645699e-09
6.6616573e-07
3.84649842e-09
6.65473837e-07
4.3029169e-09
6.6472307e-07
4.64327045e-09
6.63931985e-07
4.89056483e-09
6.63111798e-07
5.08092138e-09
6.62266317e-07
5.24950522e-09
6.6139417e-07
5.42016838e-09
6.60491959e-07
5.60183888e-09
6.59556946e-07
5.79123403e-09
6.58588475e-07
5.97891416e-09
6.57588102e-07
6.15513127e-09
6.56558941e-07
6.3131906e-09
6.5550485e-07
6.44997106e-09
6.54429869e-07
6.5646654e-09
6.5333803e-07
6.65716058e-09
6.52233409e-07
6.72699429e-09
6.51120255e-07
6.77310284e-09
6.50003067e-07
6.79407238e-09
6.488866e-07
6.78850547e-09
6.47775803e-07
6.75526196e-09
6.46675756e-07
6.69353104e-09
6.45591595e-07
6.60280397e-09
6.44528463e-07
6.4828252e-09
6.43491457e-07
6.33356622e-09
6.42485586e-07
6.15522022e-09
6.41515718e-07
5.9482054e-09
6.40586539e-07
5.7131645e-09
6.39702498e-07
5.45095759e-09
6.38867777e-07
5.16264749e-09
6.38086251e-07
4.84948362e-09
6.37361482e-07
4.51287703e-09
6.3669672e-07
4.15437482e-09
6.36094938e-07
3.77563311e-09
6.35558864e-07
3.37838571e-09
6.35091013e-07
2.96443294e-09
6.34693686e-07
2.53562651e-09
6.34368954e-07
2.0938524e-09
6.34118602e-07
1.64102304e-09
6.33944041e-07
1.17907419e-09
6.33846136e-07
7.09957569e-10
6.33824944e-07
2.35979915e-10
6.33880716e-07
-2.4046645e-10
6.34014348e-07
-7.17108749e-10
6.34226059e-07
-1.19142293e-09
6.34515173e-07
-1.66104963e-09
6.34880417e-07
-2.12343623e-09
6.35320058e-07
-2.57589314e-09
6.35831868e-07
-3.01569798e-09
6.36413109e-07
-3.44007776e-09
6.37060537e-07
-3.84621357e-09
6.37770418e-07
-4.23128913e-09
6.38538549e-07
-4.59256032e-09
6.39360277e-07
-4.92740841e-09
6.40230548e-07
-5.23341496e-09
6.41143942e-07
-5.50841787e-09
6.42094737e-07
-5.75058639e-09
6.43076973e-07
-5.95847159e-09
6.44084526e-07
-6.13105458e-09
6.45111194e-07
-6.26776331e-09
6.46150783e-07
-6.36849338e-09
6.47197193e-07
-6.43360492e-09
6.48244507e-07
-6.46389566e-09
6.49287063e-07
-6.460582e-09
6.5031953e-07
-6.42526012e-09
6.51336963e-07
-6.3598487e-09
6.52334851e-07
-6.26654553e-09
6.53309154e-07
-6.14776992e-09
6.54256323e-07
-6.00609387e-09
6.5517331e-07
-5.84419443e-09
6.56057568e-07
-5.6647912e-09
6.5690704e-07
-5.47060029e-09
6.57720142e-07
-5.26427711e-09
6.58495734e-07
-5.04839037e-09
6.5923309e-07
-4.82537443e-09
6.59931863e-07
-4.59751282e-09
6.6059205e-07
-4.36691295e-09
6.61213949e-07
-4.13549721e-09
6.61798125e-07
-3.90498764e-09
6.62345372e-07
-3.67691034e-09
6.62856675e-07
-3.45259655e-09
6.63333177e-07
-3.2331829e-09
6.63776144e-07
-3.01962612e-09
6.64186942e-07
-2.81271363e-09
6.64567005e-07
-2.61307178e-09
6.64917813e-07
-2.4211843e-09
6.65240872e-07
-2.23740576e-09
6.65537694e-07
-2.06197247e-09
6.65809784e-07
-1.89502144e-09
6.66058627e-07
-1.7366027e-09
6.66285684e-07
-1.586695e-09
6.66492378e-07
-1.44521411e-09
6.6668009e-07
-1.3120234e-09
6.66850137e-07
-1.18693899e-09
6.6700376e-07
-1.06973429e-09
6.67142115e-07
-9.60150615e-10
6.67266279e-07
-8.57905711e-10
6.67377253e-07
-7.62698976e-10
6.67475976e-07
-6.74216421e-10
6.67563331e-07
-5.92132396e-10
6.67640153e-07
-5.16111155e-10
6.6770723e-07
-4.45811151e-10
6.67765306e-07
-3.80887613e-10
6.67815081e-07
-3.20994017e-10
6.67857215e-07
-2.65784437e-10
6.67892326e-07
-2.1491454e-10
6.67920998e-07
-1.68042012e-10
6.67943775e-07
-1.24827543e-10
6.67961158e-07
-8.49353384e-11
6.67973554e-07
-4.80172934e-11
6.67981039e-07
-1.37020241e-11
6.67985595e-07
1.74400648e-11
6.6798782e-07
4.59392179e-11
6.67987904e-07
7.22251955e-11
6.67985962e-07
9.62720534e-11
6.67982e-07
1.18164387e-10
6.67976078e-07
1.37943782e-10
6.67968292e-07
1.55687e-10
6.67958746e-07
1.71511906e-10
6.67947554e-07
1.85537485e-10
6.67934852e-07
1.97885005e-10
6.67920781e-07
2.08678248e-10
6.67905485e-07
2.18040051e-10
6.67889106e-07
2.26089559e-10
6.67871777e-07
2.32939651e-10
6.67853624e-07
2.38700284e-10
6.67834757e-07
2.43472228e-10
6.67815279e-07
2.47344355e-10
6.67795283e-07
2.50396201e-10
6.67774852e-07
2.52698939e-10
6.67754059e-07
2.54317119e-10
6.67732969e-07
2.55308926e-10
6.67711634e-07
2.55727508e-10
6.67690103e-07
2.55621484e-10
6.67668414e-07
2.55035895e-10
6.67646604e-07
2.54012353e-10
6.67624704e-07
2.52589896e-10
6.67602742e-07
2.50805309e-10
6.67580744e-07
2.48692936e-10
6.67558736e-07
2.46285193e-10
6.6753674e-07
2.43612652e-10
6.67514779e-07
2.40703723e-10
6.67492874e-07
2.37584483e-10
6.67471042e-07
2.34278793e-10
6.67449302e-07
2.30808094e-10
6.67427667e-07
2.27191829e-10
6.6740615e-07
2.23447238e-10
6.67384762e-07
2.19589695e-10
6.67363514e-07
2.15632281e-10
6.67342414e-07
2.11586571e-10
6.6732147e-07
2.07460887e-10
6.67300686e-07
2.03266223e-10
6.6728007e-07
1.98989931e-10
6.6725963e-07
1.94693717e-10
6.67239401e-07
1.90118702e-10
6.67219446e-07
1.86215616e-10
1.78795022e-10
6.66650709e-07
5.45752041e-11
6.66629108e-07
4.41115549e-11
6.66621366e-07
-8.51463043e-11
6.66650189e-07
-3.24727786e-10
6.66736255e-07
-6.66973449e-10
6.66897809e-07
-1.09945722e-09
6.67146998e-07
-1.58467113e-09
6.6748451e-07
-2.05340194e-09
6.67895721e-07
-2.41765613e-09
6.68350938e-07
-2.59564571e-09
6.68810217e-07
-2.53656302e-09
6.6923098e-07
-2.23396966e-09
6.69575876e-07
-1.72429824e-09
6.69818909e-07
-1.07457912e-09
6.69949415e-07
-3.65911482e-10
6.69962447e-07
3.25218548e-10
6.69873962e-07
9.30770665e-10
6.69705835e-07
1.40667343e-09
6.69484021e-07
1.72774737e-09
6.69234763e-07
1.88734371e-09
6.68983255e-07
1.89292027e-09
6.68752405e-07
1.76244925e-09
6.68561565e-07
1.52267082e-09
6.68424834e-07
1.20965312e-09
6.68348795e-07
8.70671952e-10
6.68330145e-07
5.64555965e-10
6.68354244e-07
3.57275932e-10
6.68395834e-07
3.11682781e-10
6.68421301e-07
4.7414664e-10
6.68392256e-07
8.61843365e-10
6.68272126e-07
1.45405962e-09
6.68033354e-07
2.19331212e-09
6.67662673e-07
2.99700944e-09
6.6716282e-07
3.77676308e-09
6.66550172e-07
4.4596455e-09
6.65849156e-07
5.0044787e-09
6.65085322e-07
5.40769918e-09
6.64279336e-07
5.69719368e-09
6.63443665e-07
5.91728391e-09
6.62582506e-07
6.11140213e-09
6.61694247e-07
6.309208e-09
6.60774939e-07
6.52196956e-09
6.59821252e-07
6.74578091e-09
6.58832071e-07
6.96898791e-09
6.57808682e-07
7.17944395e-09
6.56754086e-07
7.36873524e-09
6.55672138e-07
7.53288972e-09
6.5456694e-07
7.67085168e-09
6.53442624e-07
7.78247758e-09
6.52303403e-07
7.86722576e-09
6.51153696e-07
7.92382326e-09
6.49998218e-07
7.9505638e-09
6.48841973e-07
7.94575828e-09
6.47690197e-07
7.90803585e-09
6.46548275e-07
7.83643675e-09
6.45421663e-07
7.73038078e-09
6.44315823e-07
7.58960708e-09
6.43236164e-07
7.41414061e-09
6.42187984e-07
7.20428283e-09
6.41176425e-07
6.96061151e-09
6.40206425e-07
6.68397322e-09
6.39282683e-07
6.37546469e-09
6.38409647e-07
6.03640369e-09
6.37591502e-07
5.66830156e-09
6.36832168e-07
5.27283651e-09
6.36135281e-07
4.85183883e-09
6.35504166e-07
4.40727669e-09
6.34941809e-07
3.94122386e-09
6.34450838e-07
3.4558341e-09
6.34033539e-07
2.95330314e-09
6.33691876e-07
2.435838e-09
6.33427515e-07
1.90564706e-09
6.3324183e-07
1.36496128e-09
6.33135848e-07
8.16077234e-10
6.33110369e-07
2.61529432e-10
6.33166529e-07
-2.96623251e-10
6.33304021e-07
-8.54660813e-10
6.33522786e-07
-1.41031086e-09
6.33822287e-07
-1.96073975e-09
6.34201598e-07
-2.50300091e-09
6.34659306e-07
-3.03391249e-09
6.35193407e-07
-3.55016491e-09
6.35801284e-07
-4.04837131e-09
6.36479704e-07
-4.52509733e-09
6.37224822e-07
-4.97691424e-09
6.38032197e-07
-5.40048223e-09
6.38896826e-07
-5.79262211e-09
6.39813203e-07
-6.15040993e-09
6.4077538e-07
-6.47124349e-09
6.41777047e-07
-6.75292867e-09
6.42811613e-07
-6.99373757e-09
6.43872305e-07
-7.19246543e-09
6.44952257e-07
-7.34845198e-09
6.46044623e-07
-7.46160793e-09
6.47142673e-07
-7.53241286e-09
6.48239897e-07
-7.56188314e-09
6.49330098e-07
-7.55154717e-09
6.50407469e-07
-7.50339534e-09
6.5146667e-07
-7.41980737e-09
6.52502869e-07
-7.30349553e-09
6.53511791e-07
-7.15743121e-09
6.5448973e-07
-6.98475915e-09
6.55433562e-07
-6.78873684e-09
6.56340736e-07
-6.57265786e-09
6.57209258e-07
-6.33979523e-09
6.58037663e-07
-6.09333301e-09
6.58824978e-07
-5.83633504e-09
6.59570688e-07
-5.57168958e-09
6.60274685e-07
-5.30209061e-09
6.60937225e-07
-5.03000959e-09
6.61558883e-07
-4.75768662e-09
6.62140504e-07
-4.48711479e-09
6.6268316e-07
-4.22004739e-09
6.6318811e-07
-3.95800182e-09
6.63656758e-07
-3.70226203e-09
6.64090621e-07
-3.45389743e-09
6.644913e-07
-3.21377655e-09
6.64860445e-07
-2.98257812e-09
6.65199734e-07
-2.76081412e-09
6.65510856e-07
-2.54884683e-09
6.65795485e-07
-2.34690211e-09
6.66055272e-07
-2.15509016e-09
6.66291822e-07
-1.97341704e-09
6.66506679e-07
-1.80180026e-09
6.6670131e-07
-1.64008026e-09
6.66877106e-07
-1.48804107e-09
6.67035382e-07
-1.34542677e-09
6.67177396e-07
-1.21195029e-09
6.67304352e-07
-1.08729907e-09
6.67417396e-07
-9.7113468e-10
6.67517613e-07
-8.63092782e-10
6.67606018e-07
-7.62789817e-10
6.67683555e-07
-6.6982925e-10
6.67751099e-07
-5.83806651e-10
6.67809462e-07
-5.04316836e-10
6.67859396e-07
-4.30957243e-10
6.67901604e-07
-3.63329867e-10
6.67936742e-07
-3.01044964e-10
6.67965435e-07
-2.43723739e-10
6.67988282e-07
-1.91000322e-10
6.68005873e-07
-1.42526551e-10
6.68018814e-07
-9.79813669e-11
6.6802779e-07
-5.70954609e-11
6.68033701e-07
-1.97087376e-11
6.68036161e-07
1.49179584e-11
6.68034999e-07
4.70545808e-11
6.68030936e-07
7.62413276e-11
6.68024402e-07
1.02757872e-10
6.68015879e-07
1.26647263e-10
6.68005714e-07
1.48079254e-10
6.67994077e-07
1.67301672e-10
6.67981073e-07
1.84500029e-10
6.67966817e-07
1.99785792e-10
6.67951416e-07
2.1328272e-10
6.67934974e-07
2.25121366e-10
6.67917589e-07
2.35430571e-10
6.67899351e-07
2.44334065e-10
6.67880351e-07
2.51949048e-10
6.67860675e-07
2.58385948e-10
6.67840412e-07
2.63747398e-10
6.67819642e-07
2.68127088e-10
6.67798441e-07
2.71610301e-10
6.67776879e-07
2.74273996e-10
6.67755022e-07
2.76188341e-10
6.67732928e-07
2.7741694e-10
6.67710652e-07
2.78018297e-10
6.67688242e-07
2.78046376e-10
6.67665741e-07
2.77551583e-10
6.67643187e-07
2.76580779e-10
6.67620614e-07
2.7517801e-10
6.6759805e-07
2.73384663e-10
6.67575519e-07
2.71239111e-10
6.67553042e-07
2.68777181e-10
6.67530637e-07
2.66032219e-10
6.67508321e-07
2.63034723e-10
6.67486108e-07
2.59812669e-10
6.67464011e-07
2.56391571e-10
6.6744204e-07
2.52794282e-10
6.67420205e-07
2.49041572e-10
6.67398515e-07
2.4515194e-10
6.67376977e-07
2.41142e-10
6.67355598e-07
2.37026004e-10
6.67334382e-07
2.32816777e-10
6.67313333e-07
2.2852376e-10
6.67292453e-07
2.2416024e-10
6.67271742e-07
2.19715296e-10
6.67251182e-07
2.15264737e-10
6.67230759e-07
2.10559778e-10
6.67210295e-07
2.06664037e-10
1.99440312e-10
6.6665287e-07
6.82724726e-11
6.66630151e-07
6.68870155e-11
6.66623827e-07
-7.87020502e-11
6.66655587e-07
-3.56404296e-10
6.66745829e-07
-7.57111225e-10
6.66912492e-07
-1.26599172e-09
6.67167287e-07
-1.83932228e-09
6.67510537e-07
-2.39650118e-09
6.6792757e-07
-2.83453447e-09
6.68389087e-07
-3.05700817e-09
6.68855879e-07
-3.00320825e-09
6.69286099e-07
-2.66405572e-09
6.69642681e-07
-2.08076327e-09
6.69898987e-07
-1.33078794e-09
6.70041499e-07
-5.08351563e-10
6.70071485e-07
2.95258676e-10
6.70000253e-07
1.00198644e-09
6.69848044e-07
1.55882589e-09
6.69639678e-07
1.93602993e-09
6.69401617e-07
2.12530125e-09
6.69159547e-07
2.13487399e-09
6.68936811e-07
1.98506437e-09
6.68753161e-07
1.70619982e-09
6.6862326e-07
1.33943705e-09
6.68554647e-07
9.39170801e-10
6.68545396e-07
5.73692588e-10
6.68582079e-07
3.20468339e-10
6.68638811e-07
2.54805938e-10
6.68679658e-07
4.33136364e-10
6.68665228e-07
8.76091167e-10
6.68559049e-07
1.56003368e-09
6.68333726e-07
2.41840719e-09
6.67975637e-07
3.35484863e-09
6.67486662e-07
4.26546795e-09
6.66882193e-07
5.06382348e-09
6.6618591e-07
5.70044703e-09
6.65423035e-07
6.17023724e-09
6.64614287e-07
6.50557965e-09
6.63772402e-07
6.75878298e-09
6.62901869e-07
6.98152392e-09
6.62001272e-07
7.20937009e-09
6.61066728e-07
7.45605655e-09
6.60094894e-07
7.71713755e-09
6.59084623e-07
7.97876229e-09
6.58037202e-07
8.22635288e-09
6.56955689e-07
8.44972228e-09
6.55844047e-07
8.64399445e-09
6.54706529e-07
8.80782236e-09
6.53547457e-07
8.94099658e-09
6.52371262e-07
9.04286241e-09
6.51182624e-07
9.11190286e-09
6.49986544e-07
9.14608486e-09
6.48788351e-07
9.1433967e-09
6.47593627e-07
9.10221101e-09
6.46408125e-07
9.02139883e-09
6.45237683e-07
8.90029293e-09
6.44088159e-07
8.73861481e-09
6.42965367e-07
8.53643277e-09
6.41875018e-07
8.29414943e-09
6.40822667e-07
8.01250061e-09
6.39813653e-07
7.69254883e-09
6.38853037e-07
7.33566643e-09
6.37945547e-07
6.94350713e-09
6.37095517e-07
6.51797185e-09
6.36306864e-07
6.06115645e-09
6.35583101e-07
5.57529554e-09
6.34927387e-07
5.06270923e-09
6.34342595e-07
4.52575671e-09
6.33831364e-07
3.9668291e-09
6.33396107e-07
3.38834885e-09
6.33038993e-07
2.79276699e-09
6.32761893e-07
2.18259171e-09
6.32566312e-07
1.56041764e-09
6.3245342e-07
9.28878618e-10
6.32424304e-07
2.90586556e-10
6.32479342e-07
-3.51683386e-10
6.32619605e-07
-9.94910657e-10
6.32845236e-07
-1.63588953e-09
6.33155788e-07
-2.27120232e-09
6.33550265e-07
-2.89735384e-09
6.34027182e-07
-3.51067535e-09
6.34584506e-07
-4.10730621e-09
6.35219592e-07
-4.68325003e-09
6.35929163e-07
-5.23443727e-09
6.36709287e-07
-5.75678618e-09
6.37555375e-07
-6.24629846e-09
6.38462193e-07
-6.69915009e-09
6.39423901e-07
-7.11181108e-09
6.40434113e-07
-7.48113227e-09
6.41485976e-07
-7.80445531e-09
6.42572278e-07
-8.07968996e-09
6.43685562e-07
-8.30538761e-09
6.44818251e-07
-8.48077049e-09
6.45962786e-07
-8.60576349e-09
6.47111748e-07
-8.68098996e-09
6.48257986e-07
-8.7077307e-09
6.49394721e-07
-8.6878895e-09
6.50515649e-07
-8.62392811e-09
6.5161501e-07
-8.51877416e-09
6.52687654e-07
-8.37574704e-09
6.53729077e-07
-8.1984648e-09
6.5473544e-07
-7.99073757e-09
6.55703573e-07
-7.75649121e-09
6.56630961e-07
-7.49967364e-09
6.57515715e-07
-7.22418591e-09
6.58356538e-07
-6.93380114e-09
6.59152674e-07
-6.63212735e-09
6.59903862e-07
-6.32254419e-09
6.60610276e-07
-6.00818262e-09
6.6127247e-07
-5.69189477e-09
6.61891327e-07
-5.37624645e-09
6.62467998e-07
-5.06350232e-09
6.63003858e-07
-4.75563707e-09
6.63500456e-07
-4.45434248e-09
6.63959471e-07
-4.1610331e-09
6.64382674e-07
-3.87687044e-09
6.64771897e-07
-3.60278131e-09
6.65128996e-07
-3.33947257e-09
6.65455832e-07
-3.0874585e-09
6.65754246e-07
-2.84708102e-09
6.66026037e-07
-2.61852625e-09
6.66272955e-07
-2.40185158e-09
6.66496688e-07
-2.19700522e-09
6.66698873e-07
-2.00385004e-09
6.66881093e-07
-1.82217539e-09
6.67044878e-07
-1.65170835e-09
6.67191679e-07
-1.49211641e-09
6.67322847e-07
-1.34301239e-09
6.67439622e-07
-1.20397181e-09
6.67543134e-07
-1.0745485e-09
6.67634422e-07
-9.54285618e-10
6.67714448e-07
-8.42723964e-10
6.67784109e-07
-7.39403206e-10
6.67844249e-07
-6.43862831e-10
6.67895657e-07
-5.55644608e-10
6.67939072e-07
-4.74296731e-10
6.67975191e-07
-3.99374914e-10
6.68004662e-07
-3.30445467e-10
6.68028095e-07
-2.67087128e-10
6.68046057e-07
-2.08893257e-10
6.68059074e-07
-1.55475216e-10
6.68067625e-07
-1.0646233e-10
6.68072093e-07
-6.14906058e-11
6.68072611e-07
-2.01542678e-11
6.68070127e-07
1.74456489e-11
6.68065715e-07
5.14939694e-11
6.68059187e-07
8.27913173e-11
6.68050682e-07
1.11281494e-10
6.68040309e-07
1.37029793e-10
6.68028183e-07
1.60206197e-10
6.68014495e-07
1.80984414e-10
6.67999449e-07
1.99537295e-10
6.67983201e-07
2.16020104e-10
6.67965886e-07
2.30581486e-10
6.67947624e-07
2.43365038e-10
6.67928527e-07
2.5450828e-10
6.67908698e-07
2.64142329e-10
6.67888234e-07
2.72391262e-10
6.67867226e-07
2.79371379e-10
6.6784576e-07
2.85191151e-10
6.67823914e-07
2.89950743e-10
6.67801759e-07
2.93742638e-10
6.6777936e-07
2.96651549e-10
6.67756771e-07
2.98755646e-10
6.6773404e-07
3.00126272e-10
6.67711208e-07
3.00828967e-10
6.67688311e-07
3.00923653e-10
6.67665376e-07
3.00465473e-10
6.67642432e-07
2.99504813e-10
6.67619502e-07
2.98088305e-10
6.67596608e-07
2.96259294e-10
6.6757377e-07
2.94057744e-10
6.67551007e-07
2.91520977e-10
6.67528337e-07
2.88683833e-10
6.67505775e-07
2.8557831e-10
6.67483335e-07
2.82234024e-10
6.6746103e-07
2.78678251e-10
6.67438871e-07
2.74935575e-10
6.67416867e-07
2.7102847e-10
6.67395025e-07
2.66977081e-10
6.67373351e-07
2.62799616e-10
6.67351849e-07
2.58511823e-10
6.67330522e-07
2.54127996e-10
6.67309372e-07
2.49658948e-10
6.67288398e-07
2.45119354e-10
6.67267601e-07
2.40498592e-10
6.67246982e-07
2.35868321e-10
6.67226565e-07
2.30968129e-10
6.67206427e-07
2.26765135e-10
2.19053289e-10
6.66651227e-07
8.36961867e-11
6.66628745e-07
8.94009854e-11
6.6662173e-07
-7.17133995e-11
6.66653758e-07
-3.8847055e-10
6.66746573e-07
-8.4996696e-10
6.66919264e-07
-1.43872161e-09
6.67184475e-07
-2.10457944e-09
6.6754298e-07
-2.75506285e-09
6.67979745e-07
-3.27135895e-09
6.68464204e-07
-3.54152378e-09
6.6895525e-07
-3.49430499e-09
6.69409034e-07
-3.11788074e-09
6.69786606e-07
-2.45836457e-09
6.70059669e-07
-1.60386715e-09
6.70213439e-07
-6.62135251e-10
6.70250303e-07