/*--------------------------------*- C++ -*----------------------------------*\
| =========                 |                                                 |
| \\      /  F ield         | OpenFOAM: The Open Source CFD Toolbox           |
|  \\    /   O peration     | Version:  v2012                                 |
|   \\  /    A nd           | Website:  www.openfoam.com                      |
|    \\/     M anipulation  |                                                 |
\*---------------------------------------------------------------------------*/
FoamFile
{
    version     2.0;
    format      ascii;
    class       volVectorField;
    location    "2.04";
    object      U;
}
// * * * * * * * * * * * * * * * * * * * * * * * * * * * * * * * * * * * * * //

dimensions      [0 1 -1 0 0 0 0];


internalField   nonuniform List<vector> 
28416
(
(0.099999389 8.66411396e-07 0)
(0.0999974691 -3.81846903e-06 0)
(0.0999969297 -1.47428905e-05 0)
(0.100000785 -3.13170964e-05 0)
(0.100011405 -5.3351645e-05 0)
(0.100030645 -8.01480969e-05 0)
(0.100059982 -0.000109162007 0)
(0.100099845 -0.000135804001 0)
(0.100148923 -0.000154479517 0)
(0.100204029 -0.000160242773 0)
(0.100260577 -0.000150315861 0)
(0.100313437 -0.00012482739 0)
(0.100357875 -8.65525817e-05 0)
(0.100390178 -3.99707063e-05 0)
(0.100408141 1.00721677e-05 0)
(0.10041303 5.9664088e-05 0)
(0.100407328 0.000103319072 0)
(0.100392305 0.000137176379 0)
(0.100369941 0.000159370757 0)
(0.100342834 0.000169309078 0)
(0.100313497 0.000167524776 0)
(0.100284193 0.000155581038 0)
(0.100256816 0.000135911534 0)
(0.100232923 0.000111854486 0)
(0.100213763 8.74187146e-05 0)
(0.100199837 6.69564304e-05 0)
(0.100190335 5.47899376e-05 0)
(0.100182883 5.46559831e-05 0)
(0.100173736 6.90247464e-05 0)
(0.100158429 9.8456091e-05 0)
(0.100132665 0.000141181397 0)
(0.100093102 0.000193226412 0)
(0.100037899 0.000249197663 0)
(0.0999669626 0.00030350939 0)
(0.0998817825 0.00035166079 0)
(0.099784889 0.000391158184 0)
(0.0996791181 0.000421787804 0)
(0.0995669254 0.000445185092 0)
(0.0994499491 0.000463921851 0)
(0.0993289193 0.000480503121 0)
(0.0992038692 0.000496648435 0)
(0.0990745013 0.00051304978 0)
(0.0989405331 0.000529560946 0)
(0.0988019077 0.000545606764 0)
(0.098658842 0.000560573203 0)
(0.0985117631 0.000574029624 0)
(0.0983612081 0.000585764027 0)
(0.0982077464 0.000595703355 0)
(0.0980519473 0.000603811734 0)
(0.0978943812 0.000610026591 0)
(0.0977356352 0.000614245037 0)
(0.0975763252 0.000616341716 0)
(0.0974170979 0.000616193086 0)
(0.0972586264 0.000613693151 0)
(0.0971016009 0.000608758264 0)
(0.096946721 0.000601325608 0)
(0.0967946883 0.000591350391 0)
(0.0966462009 0.000578804176 0)
(0.0965019469 0.000563674429 0)
(0.0963625983 0.00054596455 0)
(0.0962288038 0.000525694045 0)
(0.0961011823 0.000502899051 0)
(0.0959803169 0.00047763364 0)
(0.09586675 0.000449972175 0)
(0.0957609814 0.000420012487 0)
(0.0956634691 0.000387878969 0)
(0.0955746329 0.000353724079 0)
(0.0954948607 0.000317726761 0)
(0.0954245155 0.000280087103 0)
(0.0953639405 0.000241018044 0)
(0.0953134659 0.000200735657 0)
(0.0952734307 0.000159444552 0)
(0.0952441619 0.000117302115 0)
(0.0952259754 7.44341224e-05 0)
(0.095218562 3.07461604e-05 0)
(0.0952211178 -1.33421631e-05 0)
(0.0952341966 -5.697947e-05 0)
(0.0952586961 -0.000100241676 0)
(0.0952943156 -0.000143158457 0)
(0.0953406093 -0.0001855005 0)
(0.0953973538 -0.000227024448 0)
(0.0954642796 -0.000267514464 0)
(0.0955409951 -0.000306745425 0)
(0.0956270342 -0.000344475681 0)
(0.0957218793 -0.000380454307 0)
(0.095824958 -0.000414425468 0)
(0.0959356446 -0.000446132459 0)
(0.0960532698 -0.000475326621 0)
(0.0961771317 -0.000501779891 0)
(0.0963065015 -0.000525296673 0)
(0.0964406274 -0.00054572224 0)
(0.0965787397 -0.00056294691 0)
(0.0967200563 -0.000576906625 0)
(0.09686379 -0.000587581317 0)
(0.0970091576 -0.000594992394 0)
(0.0971553894 -0.000599200061 0)
(0.0973017385 -0.000600300628 0)
(0.0974474895 -0.000598423563 0)
(0.0975919667 -0.000593728086 0)
(0.09773454 -0.000586399192 0)
(0.0978746304 -0.00057664317 0)
(0.0980117135 -0.000564682767 0)
(0.0981453223 -0.000550752207 0)
(0.0982750485 -0.000535092237 0)
(0.098400543 -0.000517945406 0)
(0.0985215152 -0.000499551759 0)
(0.0986377313 -0.000480145049 0)
(0.098749012 -0.000459949526 0)
(0.0988552298 -0.000439177289 0)
(0.0989563051 -0.000418026153 0)
(0.0990522029 -0.000396678008 0)
(0.0991429283 -0.00037529769 0)
(0.0992285227 -0.000354032397 0)
(0.0993090598 -0.000333011638 0)
(0.0993846415 -0.000312347682 0)
(0.0994553933 -0.000292136336 0)
(0.0995214613 -0.000272457924 0)
(0.0995830077 -0.000253378417 0)
(0.0996402078 -0.00023495065 0)
(0.0996932466 -0.00021721554 0)
(0.0997423159 -0.000200203285 0)
(0.0997876119 -0.000183934574 0)
(0.099829333 -0.000168421896 0)
(0.0998676779 -0.000153671008 0)
(0.0999028439 -0.000139682579 0)
(0.099935025 -0.000126453974 0)
(0.0999644089 -0.000113980625 0)
(0.0999911744 -0.000102256272 0)
(0.10001549 -9.12720035e-05 0)
(0.100037512 -8.10148235e-05 0)
(0.10005739 -7.14664828e-05 0)
(0.10007526 -6.26030421e-05 0)
(0.100091253 -5.43954012e-05 0)
(0.100105495 -4.68105968e-05 0)
(0.100118103 -3.98132226e-05 0)
(0.100129189 -3.33664273e-05 0)
(0.10013886 -2.74323982e-05 0)
(0.100147215 -2.19723954e-05 0)
(0.100154345 -1.69461827e-05 0)
(0.100160336 -1.23107186e-05 0)
(0.100165267 -8.01777588e-06 0)
(0.100169217 -4.01143853e-06 0)
(0.100172299 -2.27399566e-07 0)
(0.100174583 3.38705578e-06 0)
(0.100176233 6.95887274e-06 0)
(0.10017749 1.04248278e-05 0)
(0.100178434 1.367271e-05 0)
(0.100179073 1.66456599e-05 0)
(0.100179403 1.93183837e-05 0)
(0.100179422 2.16827549e-05 0)
(0.100179125 2.37477595e-05 0)
(0.100178517 2.55338586e-05 0)
(0.100177606 2.70668724e-05 0)
(0.100176409 2.83740802e-05 0)
(0.100174945 2.94816893e-05 0)
(0.100173239 3.04134511e-05 0)
(0.100171313 3.11901848e-05 0)
(0.100169191 3.18297988e-05 0)
(0.100166897 3.23475144e-05 0)
(0.100164452 3.27561025e-05 0)
(0.100161877 3.3066115e-05 0)
(0.100159189 3.32861566e-05 0)
(0.100156407 3.34232103e-05 0)
(0.100153543 3.34830101e-05 0)
(0.100150611 3.34704295e-05 0)
(0.100147621 3.33898473e-05 0)
(0.100144582 3.32454512e-05 0)
(0.100141502 3.30414554e-05 0)
(0.100138387 3.27822164e-05 0)
(0.100135244 3.24722554e-05 0)
(0.100132076 3.2116205e-05 0)
(0.10012889 3.17187094e-05 0)
(0.100125689 3.12843108e-05 0)
(0.100122478 3.08173488e-05 0)
(0.100119262 3.03218771e-05 0)
(0.100116043 2.98015273e-05 0)
(0.100112827 2.92594848e-05 0)
(0.100109615 2.8698542e-05 0)
(0.100106411 2.81211302e-05 0)
(0.100103219 2.75293389e-05 0)
(0.100100041 2.69249398e-05 0)
(0.100096878 2.63094061e-05 0)
(0.100093734 2.56839982e-05 0)
(0.100090608 2.50496763e-05 0)
(0.100087508 2.44080772e-05 0)
(0.100084415 2.37584567e-05 0)
(0.100081406 2.31109141e-05 0)
(0.100078235 2.2425913e-05 0)
(0.100075808 2.18602803e-05 0)
(0.100071327 2.07289634e-05 0)
(0.0999992285 3.65644801e-06 0)
(0.0999961085 -1.2958389e-06 0)
(0.0999930849 -1.85501343e-05 0)
(0.0999936699 -4.6641098e-05 0)
(0.100001276 -8.48282984e-05 0)
(0.100018562 -0.000131810672 0)
(0.100047695 -0.000183295969 0)
(0.100089744 -0.000231535436 0)
(0.100143729 -0.000267006885 0)
(0.100206249 -0.000281186056 0)
(0.100271961 -0.000269111047 0)
(0.100334645 -0.000230667881 0)
(0.100388387 -0.000170286056 0)
(0.100428646 -9.54862141e-05 0)
(0.100453362 -1.493409e-05 0)
(0.100461329 6.29691183e-05 0)
(0.100452984 0.000130895886 0)
(0.100431692 0.000183985843 0)
(0.100401273 0.000219507902 0)
(0.100365377 0.000236666771 0)
(0.100327542 0.00023633722 0)
(0.100291007 0.000220722941 0)
(0.10025864 0.00019314836 0)
(0.100232752 0.000158138626 0)
(0.100214741 0.000121387755 0)
(0.100204824 8.95698303e-05 0)
(0.100201757 6.98421154e-05 0)
(0.100202693 6.88123331e-05 0)
(0.100203331 9.10851105e-05 0)
(0.100198386 0.000137887785 0)
(0.100182381 0.000206373164 0)
(0.100150702 0.000289945035 0)
(0.100100537 0.000379626355 0)
(0.100031392 0.000466137574 0)
(0.0999450055 0.000542063088 0)
(0.0998446995 0.000603408142 0)
(0.0997343716 0.000650041603 0)
(0.0996174792 0.000684936651 0)
(0.099496344 0.000712590554 0)
(0.099371956 0.000737297661 0)
(0.0992442418 0.000761923507 0)
(0.0991125896 0.000787513852 0)
(0.0989763704 0.000813657097 0)
(0.0988352698 0.000839224873 0)
(0.0986893764 0.000863067065 0)
(0.098539094 0.000884399461 0)
(0.0983849901 0.000902854198 0)
(0.098227674 0.000918325811 0)
(0.0980677424 0.000930781343 0)
(0.0979057799 0.000940142062 0)
(0.0977423833 0.000946257941 0)
(0.0975781831 0.000948939662 0)
(0.0974138492 0.00094800224 0)
(0.0972500854 0.000943292965 0)
(0.0970876181 0.000934699481 0)
(0.0969271855 0.000922146485 0)
(0.0967695286 0.000905590412 0)
(0.0966153844 0.000885016678 0)
(0.0964654795 0.000860439598 0)
(0.0963205232 0.000831903283 0)
(0.0961812018 0.000799482148 0)
(0.0960481727 0.000763280602 0)
(0.0959220594 0.000723432008 0)
(0.0958034491 0.000680097061 0)
(0.0956928908 0.000633461523 0)
(0.0955908946 0.000583733333 0)
(0.0954979317 0.000531139491 0)
(0.0954144336 0.000475923235 0)
(0.095340793 0.000418341335 0)
(0.0952773652 0.000358660908 0)
(0.0952244694 0.0002971544 0)
(0.0951823797 0.000234088973 0)
(0.0951513372 0.000169696836 0)
(0.0951313717 0.000104165242 0)
(0.0951225341 3.76159227e-05 0)
(0.0951251745 -2.9382845e-05 0)
(0.0951392858 -9.60190016e-05 0)
(0.0951647085 -0.000162151292 0)
(0.095201462 -0.000227616349 0)
(0.0952494079 -0.000292046235 0)
(0.095308314 -0.000355067722 0)
(0.0953778962 -0.000416326528 0)
(0.0954577904 -0.000475453392 0)
(0.095547548 -0.000532065289 0)
(0.0956466471 -0.000585779942 0)
(0.0957544987 -0.00063622648 0)
(0.0958704506 -0.000683053086 0)
(0.0959937942 -0.000725935308 0)
(0.0961237736 -0.000764584952 0)
(0.096259593 -0.000798757789 0)
(0.0964004237 -0.000828259699 0)
(0.0965454124 -0.000852951558 0)
(0.0966936904 -0.00087275278 0)
(0.0968443842 -0.000887643146 0)
(0.0969966265 -0.000897662762 0)
(0.0971495678 -0.000902910169 0)
(0.0973023877 -0.000903538818 0)
(0.0974543045 -0.000899752206 0)
(0.0976045845 -0.00089179797 0)
(0.097752549 -0.000879961211 0)
(0.0978975803 -0.000864557327 0)
(0.0980391254 -0.000845924583 0)
(0.0981766988 -0.000824416679 0)
(0.0983098835 -0.000800395524 0)
(0.0984383306 -0.000774224435 0)
(0.0985617578 -0.000746261937 0)
(0.0986799468 -0.000716856292 0)
(0.0987927402 -0.000686340819 0)
(0.0989000372 -0.000655030087 0)
(0.099001789 -0.000623216944 0)
(0.0990979937 -0.000591170363 0)
(0.0991886917 -0.000559134071 0)
(0.0992739603 -0.000527325866 0)
(0.0993539085 -0.000495937535 0)
(0.0994286731 -0.000465135331 0)
(0.0994984132 -0.000435060905 0)
(0.0995633065 -0.000405832582 0)
(0.0996235447 -0.000377546933 0)
(0.0996793304 -0.000350280541 0)
(0.0997308731 -0.000324091871 0)
(0.099778387 -0.000299023234 0)
(0.0998220876 -0.000275102774 0)
(0.0998621896 -0.00025234644 0)
(0.099898905 -0.000230759813 0)
(0.0999324403 -0.000210339574 0)
(0.0999629956 -0.000191074517 0)
(0.0999907632 -0.000172946332 0)
(0.100015928 -0.000155930422 0)
(0.100038665 -0.000139996887 0)
(0.100059142 -0.000125111526 0)
(0.100077518 -0.000111236524 0)
(0.100093941 -9.83307289e-05 0)
(0.100108551 -8.63499172e-05 0)
(0.10012148 -7.52473281e-05 0)
(0.100132851 -6.49742717e-05 0)
(0.10014278 -5.54806256e-05 0)
(0.100151376 -4.67151719e-05 0)
(0.100158742 -3.86256844e-05 0)
(0.100164975 -3.11586005e-05 0)
(0.10017017 -2.42584732e-05 0)
(0.10017442 -1.78670366e-05 0)
(0.100177825 -1.19240698e-05 0)
(0.100180494 -6.37266963e-06 0)
(0.100182571 -1.18630159e-06 0)
(0.100184084 3.65702574e-06 0)
(0.100185002 8.14079561e-06 0)
(0.100185411 1.22876469e-05 0)
(0.100185417 1.61027916e-05 0)
(0.100185075 1.95758299e-05 0)
(0.100184419 2.27079129e-05 0)
(0.10018348 2.55094567e-05 0)
(0.100182279 2.79956417e-05 0)
(0.100180835 3.01855508e-05 0)
(0.100179164 3.2100534e-05 0)
(0.100177283 3.37626062e-05 0)
(0.100175208 3.51935424e-05 0)
(0.100172956 3.64142912e-05 0)
(0.100170545 3.74445749e-05 0)
(0.100167992 3.83026949e-05 0)
(0.100165315 3.90052073e-05 0)
(0.100162529 3.95667752e-05 0)
(0.100159649 4.00003016e-05 0)
(0.100156688 4.03171371e-05 0)
(0.100153659 4.05273057e-05 0)
(0.100150572 4.06397298e-05 0)
(0.100147438 4.06624399e-05 0)
(0.100144264 4.06027596e-05 0)
(0.100141059 4.0467458e-05 0)
(0.100137828 4.02628661e-05 0)
(0.100134579 3.99949546e-05 0)
(0.100131315 3.96693762e-05 0)
(0.100128043 3.92914763e-05 0)
(0.100124766 3.88662802e-05 0)
(0.100121488 3.8398464e-05 0)
(0.100118212 3.78923347e-05 0)
(0.100114942 3.73519268e-05 0)
(0.100111679 3.67809979e-05 0)
(0.100108428 3.61829649e-05 0)
(0.10010519 3.55608877e-05 0)
(0.100101967 3.49174713e-05 0)
(0.100098761 3.42550756e-05 0)
(0.100095574 3.35757145e-05 0)
(0.100092408 3.28811444e-05 0)
(0.100089263 3.21726519e-05 0)
(0.100086147 3.14522236e-05 0)
(0.100083038 3.07182753e-05 0)
(0.100080017 2.99826533e-05 0)
(0.10007682 2.91999889e-05 0)
(0.100074378 2.85503063e-05 0)
(0.100069758 2.72905289e-05 0)
(0.0999993576 6.00388012e-06 0)
(0.0999966905 3.21057698e-06 0)
(0.0999945279 -1.40577908e-05 0)
(0.0999963914 -4.43745692e-05 0)
(0.100005227 -8.68974825e-05 0)
(0.100023488 -0.000140157996 0)
(0.100053158 -0.000199440139 0)
(0.10009513 -0.00025605487 0)
(0.100148412 -0.000299075445 0)
(0.100209775 -0.000318496317 0)
(0.100274173 -0.000308274721 0)
(0.100335718 -0.000267905517 0)
(0.100388806 -0.000202147064 0)
(0.100428992 -0.000119428695 0)
(0.100453285 -2.98196209e-05 0)
(0.100461721 5.66718259e-05 0)
(0.10045643 0.000132331584 0)
(0.10043924 0.000191602332 0)
(0.100412653 0.000231381322 0)
(0.100380134 0.000250864637 0)
(0.100345188 0.000251032737 0)
(0.100310964 0.000234237188 0)
(0.100280198 0.000203976193 0)
(0.100255094 0.00016488167 0)
(0.100237128 0.000122965355 0)
(0.100226792 8.56488278e-05 0)
(0.100223198 6.11808359e-05 0)
(0.100223738 5.73502457e-05 0)
(0.100224116 7.97907702e-05 0)
(0.100219011 0.000130397718 0)
(0.100203093 0.00020637933 0)
(0.100171968 0.000300443812 0)
(0.10012292 0.00040226307 0)
(0.100055351 0.000500868378 0)
(0.0999707335 0.000587268168 0)
(0.0998720492 0.000656437374 0)
(0.0997628947 0.000708007474 0)
(0.0996465477 0.000745470223 0)
(0.0995252974 0.00077430232 0)
(0.0994002188 0.000799828513 0)
(0.0992713784 0.000825653157 0)
(0.0991382976 0.000853118445 0)
(0.0990004352 0.000881721746 0)
(0.098857511 0.000910035874 0)
(0.098709609 0.000936594404 0)
(0.0985571129 0.000960397171 0)
(0.098400574 0.000980984784 0)
(0.0982405983 0.000998244905 0)
(0.0980777923 0.00101216604 0)
(0.0979127594 0.00102268056 0)
(0.0977461194 0.00102962771 0)
(0.0975785274 0.0010327928 0)
(0.0974106788 0.00103196319 0)
(0.0972433045 0.0010269648 0)
(0.0970771594 0.00101767287 0)
(0.0969130121 0.00100400764 0)
(0.0967516356 0.000985927026 0)
(0.0965938 0.000963422367 0)
(0.0964402651 0.000936517442 0)
(0.0962917738 0.00090526852 0)
(0.0961490444 0.000869763781 0)
(0.0960127639 0.000830121733 0)
(0.0958835814 0.000786489252 0)
(0.0957621021 0.000739040095 0)
(0.0956488841 0.000687974431 0)
(0.0955444371 0.000633518909 0)
(0.095449226 0.000575925779 0)
(0.0953636769 0.000515469718 0)
(0.0952881826 0.000452442057 0)
(0.0952231049 0.000387143346 0)
(0.0951687736 0.000319875898 0)
(0.0951254808 0.000250939408 0)
(0.0950934621 0.000180632455 0)
(0.0950729053 0.00010924692 0)
(0.0950639131 3.72196083e-05 0)
(0.0950664248 -3.51127438e-05 0)
(0.0950804929 -0.000107504965 0)
(0.0951063004 -0.000179537838 0)
(0.095143838 -0.000250856445 0)
(0.095192913 -0.000321097353 0)
(0.0952532829 -0.000389861539 0)
(0.0953246647 -0.000456737762 0)
(0.0954066927 -0.000521308348 0)
(0.0954989142 -0.000583149384 0)
(0.0956008033 -0.000641835862 0)
(0.0957117644 -0.000696950057 0)
(0.0958311329 -0.0007480905 0)
(0.095958179 -0.000794882224 0)
(0.0960921149 -0.000836988765 0)
(0.0962321027 -0.000874124008 0)
(0.0963772635 -0.000906061834 0)
(0.0965266879 -0.000932642715 0)
(0.0966794484 -0.000953777228 0)
(0.0968346116 -0.000969446911 0)
(0.0969912524 -0.000979703017 0)
(0.0971484662 -0.000984663597 0)
(0.0973053818 -0.000984509154 0)
(0.097461172 -0.000979476981 0)
(0.0976150641 -0.000969854314 0)
(0.0977663473 -0.000955970509 0)
(0.0979143789 -0.000938188562 0)
(0.0980585891 -0.000916896302 0)
(0.0981984826 -0.000892497617 0)
(0.0983336401 -0.000865403978 0)
(0.0984637165 -0.000836026557 0)
(0.0985884396 -0.000804769128 0)
(0.098707606 -0.000772021879 0)
(0.0988210768 -0.000738156235 0)
(0.0989287729 -0.000703520696 0)
(0.0990306694 -0.000668437669 0)
(0.0991267896 -0.000633201249 0)
(0.0992171999 -0.000598075912 0)
(0.0993020034 -0.000563296044 0)
(0.0993813349 -0.000529066173 0)
(0.0994553551 -0.000495561851 0)
(0.0995242461 -0.000462930995 0)
(0.0995882061 -0.000431295525 0)
(0.0996474461 -0.000400753291 0)
(0.0997021856 -0.000371380128 0)
(0.0997526493 -0.000343231934 0)
(0.0997990642 -0.000316346697 0)
(0.0998416572 -0.00029074644 0)
(0.0998806527 -0.000266439067 0)
(0.099916272 -0.000243420296 0)
(0.0999487318 -0.000221675975 0)
(0.0999782432 -0.000201184738 0)
(0.100005009 -0.00018192039 0)
(0.100029223 -0.000163853162 0)
(0.100051063 -0.00014694967 0)
(0.100070697 -0.000131172376 0)
(0.10008828 -0.000116479387 0)
(0.100103957 -0.000102824766 0)
(0.100117865 -9.01592029e-05 0)
(0.100130133 -7.84310289e-05 0)
(0.100140882 -6.75871888e-05 0)
(0.100150227 -5.75739577e-05 0)
(0.100158276 -4.83375019e-05 0)
(0.100165131 -3.98242915e-05 0)
(0.100170888 -3.19813752e-05 0)
(0.100175638 -2.47566884e-05 0)
(0.100179463 -1.8099735e-05 0)
(0.100182443 -1.19634598e-05 0)
(0.100184653 -6.3043259e-06 0)
(0.10018612 -1.0918358e-06 0)
(0.10018696 3.69859394e-06 0)
(0.100187414 8.133653e-06 0)
(0.100187588 1.22182142e-05 0)
(0.100187451 1.59320349e-05 0)
(0.100186994 1.92840236e-05 0)
(0.100186239 2.22950336e-05 0)
(0.100185199 2.49869245e-05 0)
(0.100183887 2.73818039e-05 0)
(0.100182318 2.95003543e-05 0)
(0.100180513 3.1363129e-05 0)
(0.100178493 3.29908886e-05 0)
(0.100176278 3.44039385e-05 0)
(0.100173891 3.56214705e-05 0)
(0.100171352 3.66610828e-05 0)
(0.10016868 3.75384529e-05 0)
(0.100165894 3.82675215e-05 0)
(0.100163009 3.88607692e-05 0)
(0.100160041 3.93293474e-05 0)
(0.100157001 3.96832249e-05 0)
(0.100153902 3.99313696e-05 0)
(0.100150754 4.00819438e-05 0)
(0.100147566 4.0142493e-05 0)
(0.100144346 4.01201069e-05 0)
(0.1001411 4.00215342e-05 0)
(0.100137832 3.98532476e-05 0)
(0.10013455 3.96214622e-05 0)
(0.100131256 3.93321204e-05 0)
(0.100127955 3.89908554e-05 0)
(0.100124651 3.86029493e-05 0)
(0.100121348 3.81732906e-05 0)
(0.100118048 3.77063546e-05 0)
(0.100114755 3.72063049e-05 0)
(0.100111472 3.66769949e-05 0)
(0.100108202 3.61219106e-05 0)
(0.100104946 3.55441641e-05 0)
(0.100101708 3.49465102e-05 0)
(0.100098488 3.43313693e-05 0)
(0.100095289 3.37008305e-05 0)
(0.100092112 3.30567238e-05 0)
(0.100088956 3.24003269e-05 0)
(0.100085829 3.17333048e-05 0)
(0.10008271 3.10533572e-05 0)
(0.100079677 3.0370489e-05 0)
(0.100076479 2.96436965e-05 0)
(0.100074028 2.90325649e-05 0)
(0.100069512 2.78623401e-05 0)
(0.0999991516 8.22280767e-06 0)
(0.0999958414 5.34505042e-06 0)
(0.0999927168 -1.64238219e-05 0)
(0.0999932551 -5.54584938e-05 0)
(0.100001031 -0.000110588912 0)
(0.100018986 -0.000179855275 0)
(0.100049447 -0.000257182194 0)
(0.100093588 -0.00033140022 0)
(0.100150502 -0.000388407908 0)
(0.100216777 -0.000415203457 0)
(0.100286918 -0.000403828422 0)
(0.10035441 -0.000353457063 0)
(0.10041298 -0.00027008818 0)
(0.100457687 -0.000164528221 0)
(0.100485813 -4.96443543e-05 0)
(0.100496301 6.23696749e-05 0)
(0.10048987 0.000160724247 0)
(0.100469527 0.000237734985 0)
(0.10043919 0.000289506619 0)
(0.100402794 0.00031508132 0)
(0.100364221 0.000315714459 0)
(0.100327138 0.000294386592 0)
(0.100294769 0.000255524472 0)
(0.100269686 0.000205067078 0)
(0.100253528 0.000150750737 0)
(0.100246634 0.000102106866 0)
(0.10024769 6.97212557e-05 0)
(0.100253646 6.36370098e-05 0)
(0.100259962 9.11602759e-05 0)
(0.100261046 0.00015474071 0)
(0.100251006 0.000250797045 0)
(0.100224769 0.000370002962 0)
(0.100179126 0.000499163567 0)
(0.100113305 0.000624276021 0)
(0.100028903 0.000733867662 0)
(0.0999292398 0.00082152518 0)
(0.0998183268 0.00088676885 0)
(0.0996998177 0.000934040726 0)
(0.0995762593 0.000970323394 0)
(0.0994488433 0.00100242209 0)
(0.0993176359 0.00103496149 0)
(0.0991820869 0.00106968275 0)
(0.0990415609 0.00110596204 0)
(0.0988956953 0.00114197669 0)
(0.0987445193 0.00117583604 0)
(0.0985883895 0.00120623472 0)
(0.0984278507 0.00123255797 0)
(0.0982635147 0.00125464139 0)
(0.0980960007 0.0012724588 0)
(0.0979259296 0.00128591998 0)
(0.0977539442 0.00129482024 0)
(0.0975807285 0.00129888779 0)
(0.0974070131 0.00129785412 0)
(0.0972335692 0.00129150048 0)
(0.0970611967 0.00127967203 0)
(0.0968907116 0.00126227261 0)
(0.0967229352 0.00123925548 0)
(0.0965586849 0.00121061813 0)
(0.0963987662 0.00117640139 0)
(0.0962439641 0.00113669031 0)
(0.0960950361 0.00109161443 0)
(0.095952706 0.00104134645 0)
(0.0958176599 0.000986099494 0)
(0.0956905452 0.000926122675 0)
(0.0955719703 0.000861695001 0)
(0.0954625034 0.000793118047 0)
(0.0953626687 0.000720708928 0)
(0.0952729411 0.000644795409 0)
(0.0951937414 0.000565713498 0)
(0.0951254369 0.000483806431 0)
(0.0950683447 0.000399424831 0)
(0.0950227338 0.000312924671 0)
(0.0949888344 0.000224668885 0)
(0.0949668366 0.000135035433 0)
(0.0949568582 4.43916155e-05 0)
(0.0949590484 -4.68307128e-05 0)
(0.0949734977 -0.000138093603 0)
(0.0950001591 -0.000228902134 0)
(0.0950389755 -0.000318810099 0)
(0.0950898565 -0.00040733992 0)
(0.0951526287 -0.000493973175 0)
(0.095227035 -0.000578177984 0)
(0.0953127307 -0.000659414315 0)
(0.0954092768 -0.000737133589 0)
(0.0955161413 -0.000810788673 0)
(0.0956327015 -0.000879848514 0)
(0.0957582476 -0.000943811309 0)
(0.0958919891 -0.00100221624 0)
(0.0960330641 -0.00105465479 0)
(0.0961805501 -0.00110078146 0)
(0.0963334764 -0.00114032312 0)
(0.0964908369 -0.0011730869 0)
(0.0966516049 -0.00119896587 0)
(0.0968147481 -0.00121794208 0)
(0.0969792444 -0.00123008657 0)
(0.097144097 -0.00123555641 0)
(0.0973083494 -0.00123458915 0)
(0.0974710986 -0.00122749505 0)
(0.097631506 -0.00121464769 0)
(0.0977888069 -0.00119647339 0)
(0.097942317 -0.00117343996 0)
(0.098091437 -0.00114604513 0)
(0.0982356546 -0.00111480522 0)
(0.0983745443 -0.00108024428 0)
(0.0985077659 -0.00104288408 0)
(0.0986350611 -0.00100323526 0)
(0.0987562483 -0.000961789552 0)
(0.0988712173 -0.00091901348 0)
(0.0989799229 -0.000875343309 0)
(0.0990823781 -0.000831181332 0)
(0.0991786469 -0.00078689339 0)
(0.0992688372 -0.000742807516 0)
(0.0993530947 -0.000699213556 0)
(0.0994315953 -0.000656363598 0)
(0.0995045403 -0.00061447311 0)
(0.0995721502 -0.000573722652 0)
(0.0996346599 -0.000534260008 0)
(0.0996923141 -0.00049620267 0)
(0.0997453634 -0.000459640546 0)
(0.0997940611 -0.000424638765 0)
(0.09983866 -0.00039124063 0)
(0.0998794102 -0.000359470688 0)
(0.0999165568 -0.000329337803 0)
(0.0999503369 -0.000300837896 0)
(0.0999809766 -0.000273955812 0)
(0.10000869 -0.000248666102 0)
(0.100033679 -0.000224933312 0)
(0.100056137 -0.000202712837 0)
(0.100076247 -0.000181952707 0)
(0.100094188 -0.000162595843 0)
(0.100110126 -0.000144581991 0)
(0.10012422 -0.000127848839 0)
(0.100136616 -0.000112332524 0)
(0.10014745 -9.79679569e-05 0)
(0.100156849 -8.46893675e-05 0)
(0.10016493 -7.24308043e-05 0)
(0.100171801 -6.11264773e-05 0)
(0.100177564 -5.07110031e-05 0)
(0.100182315 -4.11195925e-05 0)
(0.100186146 -3.22881806e-05 0)
(0.100189145 -2.41536046e-05 0)
(0.100191402 -1.66538807e-05 0)
(0.100193009 -9.728202e-06 0)
(0.100194087 -3.3219576e-06 0)
(0.100194706 2.63743406e-06 0)
(0.100194812 8.16009248e-06 0)
(0.100194391 1.32370291e-05 0)
(0.100193554 1.7880141e-05 0)
(0.100192403 2.2097306e-05 0)
(0.100190988 2.58958363e-05 0)
(0.10018934 2.92886797e-05 0)
(0.100187479 3.22963456e-05 0)
(0.100185423 3.49459223e-05 0)
(0.100183187 3.72667254e-05 0)
(0.100180788 3.92877841e-05 0)
(0.100178241 4.10366127e-05 0)
(0.100175559 4.2538529e-05 0)
(0.100172757 4.3816397e-05 0)
(0.100169847 4.48905747e-05 0)
(0.100166842 4.57793152e-05 0)
(0.100163757 4.64991654e-05 0)
(0.100160601 4.70651425e-05 0)
(0.100157387 4.74908677e-05 0)
(0.100154123 4.77886946e-05 0)
(0.100150821 4.79698315e-05 0)
(0.100147487 4.80444615e-05 0)
(0.10014413 4.80218631e-05 0)
(0.100140756 4.79105296e-05 0)
(0.100137372 4.77182812e-05 0)
(0.100133983 4.74523651e-05 0)
(0.100130594 4.71195349e-05 0)
(0.100127208 4.67261109e-05 0)
(0.100123829 4.62780219e-05 0)
(0.10012046 4.57808373e-05 0)
(0.100117103 4.52397806e-05 0)
(0.100113761 4.46596404e-05 0)
(0.100110435 4.40447664e-05 0)
(0.100107128 4.33991191e-05 0)
(0.10010384 4.27262849e-05 0)
(0.100100574 4.20294781e-05 0)
(0.10009733 4.13115519e-05 0)
(0.10009411 4.05749855e-05 0)
(0.100090914 3.9821968e-05 0)
(0.100087742 3.90540702e-05 0)
(0.100084601 3.82734943e-05 0)
(0.100081467 3.74781551e-05 0)
(0.10007842 3.66806345e-05 0)
(0.100075191 3.58345798e-05 0)
(0.100072722 3.51243638e-05 0)
(0.10006802 3.37874886e-05 0)
(0.0999992707 1.10983614e-05 0)
(0.0999960845 1.04033822e-05 0)
(0.0999929649 -1.30581503e-05 0)
(0.0999937963 -5.73984734e-05 0)
(0.100002122 -0.000121089153 0)
(0.100020792 -0.000201795765 0)
(0.100052081 -0.000292585739 0)
(0.100097086 -0.000380654159 0)
(0.100154861 -0.000449659837 0)
(0.100222021 -0.000484334549 0)
(0.100293162 -0.000475093723 0)
(0.100361898 -0.000420558315 0)
(0.100422053 -0.000327333473 0)
(0.100468692 -0.000207761428 0)
(0.100498757 -7.68602903e-05 0)
(0.100511351 5.0386679e-05 0)
(0.100507517 0.000162092899 0)
(0.10048978 0.000250099184 0)
(0.100461654 0.000309730134 0)
(0.10042708 0.00033962358 0)
(0.100390038 0.000341093419 0)
(0.100354255 0.000317395702 0)
(0.100323006 0.000273378908 0)
(0.100298941 0.000215604711 0)
(0.100283821 0.000152707379 0)
(0.100278155 9.54963243e-05 0)
(0.10028085 5.6216573e-05 0)
(0.100288938 4.67088917e-05 0)
(0.100297615 7.58375138e-05 0)
(0.100300966 0.000146957361 0)
(0.100293045 0.000256324121 0)
(0.100268857 0.00039330648 0)
(0.100225193 0.000542534772 0)
(0.100161172 0.000687479946 0)
(0.100078236 0.000814431237 0)
(0.0999795634 0.000915585111 0)
(0.0998690824 0.000990196414 0)
(0.0997504304 0.00104346216 0)
(0.099626186 0.00108371596 0)
(0.0994975896 0.00111916034 0)
(0.0993647473 0.00115541769 0)
(0.0992271281 0.0011946364 0)
(0.0990840986 0.00123608507 0)
(0.0989352899 0.00127755334 0)
(0.0987807276 0.00131672972 0)
(0.0986207723 0.00135200885 0)
(0.0984559815 0.00138263108 0)
(0.0982869869 0.00140839506 0)
(0.0981144333 0.00142927642 0)
(0.0979389724 0.0014451775 0)
(0.0977612828 0.00145586222 0)
(0.0975820895 0.00146101202 0)
(0.0974021692 0.00146031139 0)
(0.0972223436 0.00145350525 0)
(0.0970434662 0.00144041692 0)
(0.0968664097 0.00142094217 0)
(0.0966920535 0.00139503808 0)
(0.0965212755 0.00136271635 0)
(0.0963549421 0.00132404136 0)
(0.0961939008 0.00127912961 0)
(0.0960389708 0.00122814752 0)
(0.0958909346 0.00117130685 0)
(0.0957505292 0.0011088587 0)
(0.0956184366 0.00104108743 0)
(0.0954952762 0.000968306039 0)
(0.0953816034 0.0008908531 0)
(0.0952779151 0.000809089777 0)
(0.0951846609 0.000723395904 0)
(0.095102253 0.000634164867 0)
(0.0950310713 0.000541798418 0)
(0.0949714609 0.00044670258 0)
(0.0949237287 0.000349286626 0)
(0.0948881362 0.000249967061 0)
(0.0948648741 0.000149165326 0)
(0.0948540934 4.73444418e-05 0)
(0.0948559171 -5.49749286e-05 0)
(0.0948704696 -0.000157367685 0)
(0.0948978402 -0.000259372946 0)
(0.0949380071 -0.000360455694 0)
(0.0949908598 -0.000460050081 0)
(0.0950562131 -0.00055756912 0)
(0.0951338038 -0.000652403874 0)
(0.0952232831 -0.00074392829 0)
(0.0953242085 -0.000831506814 0)
(0.0954360392 -0.000914504056 0)
(0.0955581357 -0.000992297164 0)
(0.0956897605 -0.0010642906 0)
(0.095830081 -0.00112993252 0)
(0.0959781775 -0.00118873167 0)
(0.0961330536 -0.00124027312 0)
(0.0962936503 -0.00128423142 0)
(0.0964588625 -0.00132038027 0)
(0.0966275579 -0.00134859857 0)
(0.0967985963 -0.00136887294 0)
(0.0969708497 -0.00138129689 0)
(0.0971432207 -0.00138606671 0)
(0.0973146607 -0.00138347445 0)
(0.097484185 -0.00137389831 0)
(0.0976508861 -0.00135779082 0)
(0.0978139439 -0.00133566569 0)
(0.0979726329 -0.00130808369 0)
(0.0981263269 -0.00127563834 0)
(0.0982745002 -0.00123894196 0)
(0.0984167269 -0.00119861247 0)
(0.0985526778 -0.00115526136 0)
(0.0986821154 -0.00110948321 0)
(0.0988048874 -0.00106184676 0)
(0.0989209195 -0.00101288773 0)
(0.099030207 -0.000963103275 0)
(0.0991328066 -0.00091294816 0)
(0.0992288281 -0.000862832295 0)
(0.0993184259 -0.000813119695 0)
(0.0994017914 -0.000764128586 0)
(0.0994791454 -0.000716132464 0)
(0.0995507316 -0.000669362014 0)
(0.0996168104 -0.000624007636 0)
(0.0996776529 -0.000580222367 0)
(0.0997335369 -0.000538125064 0)
(0.0997847423 -0.000497803696 0)
(0.0998315475 -0.000459318593 0)
(0.0998742265 -0.000422705572 0)
(0.0999130456 -0.000387978721 0)
(0.0999482627 -0.000355132753 0)
(0.0999801266 -0.000324145263 0)
(0.100008879 -0.000294979419 0)
(0.100034753 -0.000267587394 0)
(0.100057975 -0.000241914034 0)
(0.100078756 -0.000217899781 0)
(0.100097291 -0.00019548217 0)
(0.100113755 -0.000174596025 0)
(0.100128311 -0.000155173279 0)
(0.100141108 -0.000137143285 0)
(0.100152286 -0.000120433692 0)
(0.100161975 -0.000104971447 0)
(0.100170298 -9.06836023e-05 0)
(0.100177368 -7.74978131e-05 0)
(0.100183293 -6.53426978e-05 0)
(0.100188175 -5.41484766e-05 0)
(0.100192107 -4.38477302e-05 0)
(0.100195178 -3.43760195e-05 0)
(0.10019747 -2.56725629e-05 0)
(0.100199057 -1.76816708e-05 0)
(0.100200007 -1.03565932e-05 0)
(0.100200361 -3.66050362e-06 0)
(0.100200183 2.41698808e-06 0)
(0.100199621 7.89815142e-06 0)
(0.100198782 1.2860672e-05 0)
(0.100197654 1.73770988e-05 0)
(0.100196224 2.14882389e-05 0)
(0.10019452 2.52183894e-05 0)
(0.100192568 2.85856183e-05 0)
(0.100190399 3.16067366e-05 0)
(0.100188039 3.43010702e-05 0)
(0.10018551 3.66889971e-05 0)
(0.100182831 3.87909775e-05 0)
(0.100180018 4.06274067e-05 0)
(0.100177089 4.22183974e-05 0)
(0.100174057 4.35835165e-05 0)
(0.100170938 4.47415867e-05 0)
(0.100167744 4.57102825e-05 0)
(0.100164487 4.65058663e-05 0)