/*--------------------------------*- C++ -*----------------------------------*\
| =========                 |                                                 |
| \\      /  F ield         | OpenFOAM: The Open Source CFD Toolbox           |
|  \\    /   O peration     | Version:  v2012                                 |
|   \\  /    A nd           | Website:  www.openfoam.com                      |
|    \\/     M anipulation  |                                                 |
\*---------------------------------------------------------------------------*/
FoamFile
{
    version     2.0;
    format      ascii;
    class       volVectorField;
    location    "2.29";
    object      H;
}
// * * * * * * * * * * * * * * * * * * * * * * * * * * * * * * * * * * * * * //

dimensions      [0 1 -2 0 0 0 0];


internalField   nonuniform List<vector> 
28416
(
(151.735192 0.0229530389 0)
(151.705715 0.0672435552 0)
(151.655534 0.105939348 0)
(151.586611 0.134834649 0)
(151.506266 0.150123087 0)
(151.421058 0.150458559 0)
(151.336458 0.137072298 0)
(151.257279 0.112190157 0)
(151.187966 0.0776786373 0)
(151.133042 0.0351754056 0)
(151.096276 -0.0132143129 0)
(151.074416 -0.064364482 0)
(151.061776 -0.106424402 0)
(151.058321 -0.129279729 0)
(151.060867 -0.127390348 0)
(151.063772 -0.0994413507 0)
(151.061878 -0.0486255844 0)
(151.052188 0.0170681398 0)
(151.028545 0.0872080412 0)
(150.983624 0.156128454 0)
(150.920093 0.21853782 0)
(150.84305 0.268882257 0)
(150.756795 0.303236572 0)
(150.665602 0.31984494 0)
(150.573974 0.318801204 0)
(150.486136 0.301812983 0)
(150.405795 0.272020597 0)
(150.336035 0.233800688 0)
(150.279043 0.19260203 0)
(150.235693 0.154722537 0)
(150.205134 0.126840804 0)
(150.184533 0.115206216 0)
(150.169248 0.124570002 0)
(150.15357 0.157064691 0)
(150.131618 0.211329036 0)
(150.098142 0.282458746 0)
(150.049517 0.362961524 0)
(149.984481 0.444353704 0)
(149.904145 0.519044851 0)
(149.811413 0.581946263 0)
(149.710051 0.631283097 0)
(149.603677 0.668387649 0)
(149.49498 0.696634105 0)
(149.385371 0.719982854 0)
(149.275075 0.741695524 0)
(149.163546 0.763626496 0)
(149.049971 0.786191041 0)
(148.93367 0.808820118 0)
(148.814291 0.830571012 0)
(148.691808 0.850604424 0)
(148.566415 0.868395352 0)
(148.4384 0.883708536 0)
(148.30806 0.896458755 0)
(148.175681 0.906574858 0)
(148.041554 0.913929769 0)
(147.905998 0.918337578 0)
(147.769384 0.919585815 0)
(147.632138 0.917470022 0)
(147.494742 0.911813835 0)
(147.357722 0.902474106 0)
(147.221645 0.889338236 0)
(147.087111 0.872320493 0)
(146.954751 0.85136033 0)
(146.825222 0.826422617 0)
(146.699196 0.797498827 0)
(146.577358 0.764608622 0)
(146.460397 0.727801946 0)
(146.349001 0.68716186 0)
(146.243853 0.642807638 0)
(146.145632 0.594897127 0)
(146.055013 0.54362687 0)
(145.972673 0.489229143 0)
(145.899287 0.431965593 0)
(145.835534 0.372117673 0)
(145.78209 0.309973544 0)
(145.739665 0.245817166 0)
(145.708947 0.179839776 0)
(145.69034 0.11215872 0)
(145.683466 0.0430567735 0)
(145.689615 -0.0262286897 0)
(145.710929 -0.095329381 0)
(145.746869 -0.164672071 0)
(145.796929 -0.234049647 0)
(145.861005 -0.303012398 0)
(145.939127 -0.371163338 0)
(146.031105 -0.438092012 0)
(146.136613 -0.503354884 0)
(146.255233 -0.566495562 0)
(146.386424 -0.627046563 0)
(146.529515 -0.684528092 0)
(146.683723 -0.738456486 0)
(146.848164 -0.788359574 0)
(147.021867 -0.833795474 0)
(147.203783 -0.874371796 0)
(147.392797 -0.909761858 0)
(147.587738 -0.939715438 0)
(147.787391 -0.964063764 0)
(147.990512 -0.982720096 0)
(148.195847 -0.995677613 0)
(148.402147 -1.00300587 0)
(148.60819 -1.00484645 0)
(148.812798 -1.00140774 0)
(149.014855 -0.992958586 0)
(149.213317 -0.979820797 0)
(149.407229 -0.962360468 0)
(149.595728 -0.940978553 0)
(149.778054 -0.916100958 0)
(149.953549 -0.888168708 0)
(150.121663 -0.857628472 0)
(150.281947 -0.824923851 0)
(150.434056 -0.790487642 0)
(150.577741 -0.754735249 0)
(150.71284 -0.7180592 0)
(150.839277 -0.680824605 0)
(150.957043 -0.643365216 0)
(151.066191 -0.605979113 0)
(151.166823 -0.568921544 0)
(151.259123 -0.532400919 0)
(151.343361 -0.496596947 0)
(151.419852 -0.461667187 0)
(151.488938 -0.427747034 0)
(151.550975 -0.394949499 0)
(151.606331 -0.363365773 0)
(151.655375 -0.333066291 0)
(151.69848 -0.304101947 0)
(151.736012 -0.276504831 0)
(151.768329 -0.250286929 0)
(151.795783 -0.225439895 0)
(151.818726 -0.201942967 0)
(151.8375 -0.179767678 0)
(151.852439 -0.158880168 0)
(151.86386 -0.139242013 0)
(151.872068 -0.120810192 0)
(151.877352 -0.103536527 0)
(151.879987 -0.0873668226 0)
(151.880238 -0.0722387156 0)
(151.878362 -0.0580747854 0)
(151.874621 -0.044781261 0)
(151.869318 -0.0322695796 0)
(151.862838 -0.0205239779 0)
(151.855678 -0.00975760628 0)
(151.848156 -0.000367171126 0)
(151.83973 0.00754521808 0)
(151.82969 0.0143481409 0)
(151.81822 0.0203536587 0)
(151.805601 0.0257486404 0)
(151.792094 0.0306512031 0)
(151.777925 0.035130518 0)
(151.763257 0.0392253887 0)
(151.748211 0.0429621224 0)
(151.7329 0.0463558949 0)
(151.717418 0.0494115364 0)
(151.701845 0.0521297357 0)
(151.686236 0.0545132195 0)
(151.670634 0.0565699413 0)
(151.655071 0.0583134965 0)
(151.639579 0.059762129 0)
(151.624182 0.0609373166 0)
(151.608907 0.0618622719 0)
(151.593778 0.0625605495 0)
(151.578819 0.0630549126 0)
(151.564054 0.0633664904 0)
(151.549506 0.0635142144 0)
(151.535195 0.0635145387 0)
(151.521141 0.0633814575 0)
(151.507361 0.0631267299 0)
(151.49387 0.0627602138 0)
(151.480679 0.0622902492 0)
(151.467799 0.0617240698 0)
(151.455238 0.0610682004 0)
(151.443002 0.0603287996 0)
(151.431096 0.059511919 0)
(151.419523 0.0586236608 0)
(151.408284 0.0576702361 0)
(151.397384 0.0566579403 0)
(151.386822 0.0555930655 0)
(151.376599 0.0544817739 0)
(151.366719 0.0533299451 0)
(151.357181 0.0521430297 0)
(151.347989 0.05092595 0)
(151.339143 0.0496830619 0)
(151.330646 0.0484181385 0)
(151.3225 0.0471344202 0)
(151.314705 0.0458343696 0)
(151.307274 0.0445206185 0)
(151.300176 0.0431914104 0)
(151.293539 0.041859555 0)
(151.286963 0.0404643664 0)
(151.281958 0.0392606589 0)
(151.270828 0.0370135855 0)
(151.738537 0.0480836721 0)
(151.71343 0.139092417 0)
(151.666043 0.216483796 0)
(151.596361 0.273942821 0)
(151.512273 0.306043846 0)
(151.42155 0.311130502 0)
(151.330571 0.291592235 0)
(151.244781 0.251305415 0)
(151.169093 0.193469972 0)
(151.10769 0.12100488 0)
(151.062479 0.0384221585 0)
(151.037475 -0.0457417487 0)
(151.034117 -0.116033782 0)
(151.046781 -0.158428204 0)
(151.068156 -0.163222064 0)
(151.090239 -0.127419729 0)
(151.103961 -0.0554035938 0)
(151.102131 0.0420670199 0)
(151.081416 0.1502798 0)
(151.03907 0.257263012 0)
(150.974846 0.35287774 0)
(150.892088 0.428608827 0)
(150.796325 0.478991116 0)
(150.693672 0.501883088 0)
(150.590239 0.49779259 0)
(150.491731 0.469314895 0)
(150.40313 0.420847111 0)
(150.328489 0.358503396 0)
(150.270655 0.290163307 0)
(150.230857 0.225383593 0)
(150.208239 0.174790709 0)
(150.199574 0.148738115 0)
(150.19934 0.155350885 0)
(150.200279 0.198425511 0)
(150.194407 0.275918983 0)
(150.174391 0.379917684 0)
(150.13499 0.498248186 0)
(150.074091 0.617172663 0)
(149.992925 0.724529933 0)
(149.895424 0.812374806 0)
(149.786955 0.878264023 0)
(149.672816 0.924841228 0)
(149.557016 0.958010546 0)
(149.44165 0.984490218 0)
(149.326992 1.00968311 0)
(149.212087 1.03653649 0)
(149.095542 1.06554821 0)
(148.97616 1.09558618 0)
(148.853265 1.12495131 0)
(148.72671 1.15219027 0)
(148.596699 1.17643822 0)
(148.463582 1.19735375 0)
(148.327711 1.21486037 0)
(148.1894 1.22890201 0)
(148.048948 1.23931877 0)
(147.906682 1.24584196 0)
(147.762989 1.2481508 0)
(147.618328 1.24593243 0)
(147.473223 1.23891619 0)
(147.328252 1.2268816 0)
(147.184037 1.20965321 0)
(147.041236 1.18709451 0)
(146.900539 1.15910588 0)
(146.76266 1.12562627 0)
(146.628331 1.08663594 0)
(146.4983 1.0421583 0)
(146.373319 0.992260248 0)
(146.254146 0.93705114 0)
(146.141534 0.87668082 0)
(146.036233 0.81133687 0)
(145.938985 0.7412413 0)
(145.850522 0.66664694 0)
(145.771561 0.587833028 0)
(145.702801 0.505101351 0)
(145.644918 0.418771329 0)
(145.598512 0.329171631 0)
(145.564084 0.236599241 0)
(145.542168 0.141373106 0)
(145.533783 0.0440249788 0)
(145.540512 -0.0545605452 0)
(145.562146 -0.153723487 0)
(145.598259 -0.253331428 0)
(145.649249 -0.352943251 0)
(145.715183 -0.451939449 0)
(145.796034 -0.549727684 0)
(145.891668 -0.645680368 0)
(146.001812 -0.739114763 0)
(146.126055 -0.82932448 0)
(146.263852 -0.915595798 0)
(146.414518 -0.997218304 0)
(146.577232 -1.07350164 0)
(146.751048 -1.14379393 0)
(146.93491 -1.20749888 0)
(147.127659 -1.26409161 0)
(147.328049 -1.31313296 0)
(147.534762 -1.35428144 0)
(147.746427 -1.38730234 0)
(147.961637 -1.41207368 0)
(148.178978 -1.42858849 0)
(148.397046 -1.43695351 0)
(148.614475 -1.43738428 0)
(148.829954 -1.43019724 0)
(149.042248 -1.41579914 0)
(149.250217 -1.39467458 0)
(149.452823 -1.36737214 0)
(149.649145 -1.33448971 0)
(149.83838 -1.29665962 0)
(150.019852 -1.25453406 0)
(150.193007 -1.2087712 0)
(150.357411 -1.16002259 0)
(150.512747 -1.10892186 0)
(150.658806 -1.05607509 0)
(150.795481 -1.00205275 0)
(150.922752 -0.947383053 0)
(151.040683 -0.892546253 0)
(151.149407 -0.837968826 0)
(151.249121 -0.784015275 0)
(151.340089 -0.730985502 0)
(151.422631 -0.679137633 0)
(151.497107 -0.628696544 0)
(151.563906 -0.579853701 0)
(151.623429 -0.532766668 0)
(151.676089 -0.487559907 0)
(151.7223 -0.44432649 0)
(151.762477 -0.403130193 0)
(151.797029 -0.364007298 0)
(151.826358 -0.326967095 0)
(151.850855 -0.291993323 0)
(151.870893 -0.259050824 0)
(151.886829 -0.228090109 0)
(151.89901 -0.199050187 0)
(151.907764 -0.171860567 0)
(151.913406 -0.146443008 0)
(151.916239 -0.122713307 0)
(151.916552 -0.10058342 0)
(151.914634 -0.079965136 0)
(151.910777 -0.0607782923 0)
(151.905255 -0.0429567826 0)
(151.89828 -0.026459723 0)
(151.889886 -0.0112842065 0)
(151.880182 0.00256329437 0)
(151.869558 0.0148417883 0)
(151.85818 0.0253831014 0)
(151.845967 0.0345027602 0)
(151.8329 0.0425012042 0)
(151.819033 0.0495825327 0)
(151.804491 0.055880139 0)
(151.78941 0.0614758652 0)
(151.773903 0.066431263 0)
(151.758066 0.0708066582 0)
(151.741987 0.0746567382 0)
(151.725746 0.0780248764 0)
(151.709417 0.0809445526 0)
(151.693064 0.083443481 0)
(151.676741 0.085546705 0)
(151.660494 0.0872780429 0)
(151.644361 0.0886609224 0)
(151.628374 0.0897189876 0)
(151.612562 0.0904762285 0)
(151.596948 0.0909566193 0)
(151.581555 0.091183618 0)
(151.5664 0.0911797659 0)
(151.551502 0.0909663725 0)
(151.536875 0.0905632199 0)
(151.522536 0.0899883721 0)
(151.508496 0.0892581378 0)
(151.494766 0.0883871567 0)
(151.481356 0.0873885476 0)
(151.468275 0.086274093 0)
(151.455528 0.0850544336 0)
(151.443121 0.0837392585 0)
(151.431057 0.0823374774 0)
(151.419342 0.0808573596 0)
(151.407975 0.0793066371 0)
(151.396959 0.0776925714 0)
(151.386296 0.0760219798 0)
(151.375986 0.07430124 0)
(151.36603 0.0725362818 0)
(151.356429 0.0707325572 0)
(151.347183 0.0688949972 0)
(151.338292 0.0670279763 0)
(151.329757 0.0651352614 0)
(151.32158 0.0632200255 0)
(151.313759 0.0612844737 0)
(151.306305 0.059330886 0)
(151.299185 0.0573560691 0)
(151.292525 0.0553743019 0)
(151.285902 0.0533083851 0)
(151.280851 0.0514956241 0)
(151.269445 0.0482749856 0)
(151.738116 0.0589034933 0)
(151.711313 0.17024073 0)
(151.663187 0.264409586 0)
(151.594096 0.334609694 0)
(151.511311 0.375084623 0)
(151.422049 0.383999778 0)
(151.332382 0.364000504 0)
(151.247563 0.319450556 0)
(151.172368 0.25399429 0)
(151.11112 0.171123197 0)
(151.067517 0.0770242032 0)
(151.043148 -0.0163594937 0)
(151.037102 -0.0955061911 0)
(151.045095 -0.146156312 0)
(151.06178 -0.15679735 0)
(151.079319 -0.123112939 0)
(151.089859 -0.0489776023 0)
(151.087876 0.0556055201 0)
(151.068425 0.176648012 0)
(151.027577 0.298113092 0)
(150.96616 0.406381719 0)
(150.887423 0.491576443 0)
(150.796083 0.547571023 0)
(150.697618 0.571853033 0)
(150.597716 0.564994306 0)
(150.501838 0.529969561 0)
(150.414879 0.47170627 0)
(150.340926 0.396982285 0)
(150.282957 0.314545832 0)
(150.242407 0.23510122 0)
(150.218703 0.170698239 0)
(150.208908 0.133241179 0)
(150.207722 0.132259233 0)
(150.208056 0.172543614 0)
(150.202166 0.252445306 0)
(150.183018 0.363556449 0)
(150.145527 0.492179003 0)
(150.087437 0.622339777 0)
(150.009578 0.739526647 0)
(149.915362 0.833981994 0)
(149.809675 0.902473685 0)
(149.697509 0.948004694 0)
(149.582783 0.977711756 0)
(149.4677 0.999884375 0)
(149.352743 1.02128272 0)
(149.237179 1.045644 0)
(149.119771 1.07362774 0)
(148.99939 1.10381464 0)
(148.875349 1.13404764 0)
(148.747449 1.16247789 0)
(148.615836 1.1880175 0)
(148.480817 1.2102647 0)
(148.342726 1.22917086 0)
(148.201876 1.24471917 0)
(148.058578 1.25675697 0)
(147.913173 1.26498467 0)
(147.766067 1.26902761 0)
(147.617738 1.26851416 0)
(147.468735 1.26312094 0)
(147.319665 1.25258333 0)
(147.171184 1.23668847 0)
(147.023987 1.2152663 0)
(146.878803 1.18818602 0)
(146.736388 1.15535702 0)
(146.597519 1.1167314 0)
(146.462983 1.07230561 0)
(146.333571 1.02212095 0)
(146.210071 0.966263399 0)
(146.093263 0.904863299 0)
(145.983914 0.838094464 0)
(145.882781 0.766172349 0)
(145.790611 0.689350639 0)
(145.708138 0.607916315 0)
(145.636085 0.522185198 0)
(145.575157 0.432499037 0)
(145.526036 0.339222632 0)
(145.489405 0.242788141 0)
(145.465915 0.143699383 0)
(145.455754 0.0424663015 0)
(145.460559 -0.060692381 0)
(145.480915 -0.165310305 0)
(145.516476 -0.270773607 0)
(145.567364 -0.376552103 0)
(145.633693 -0.482035395 0)
(145.715514 -0.586542406 0)
(145.812731 -0.689351724 0)
(145.925099 -0.789700491 0)
(146.05223 -0.88679484 0)
(146.193591 -0.979823732 0)
(146.348499 -1.06797172 0)
(146.516119 -1.15043617 0)
(146.695473 -1.22644873 0)
(146.885449 -1.29529856 0)
(147.084815 -1.35635541 0)
(147.292228 -1.40909046 0)
(147.506267 -1.45309291 0)
(147.725442 -1.48808121 0)
(147.948228 -1.51390917 0)
(148.173093 -1.53056726 0)
(148.398517 -1.5381797 0)
(148.623026 -1.53699791 0)
(148.845214 -1.52739075 0)
(149.063762 -1.5098317 0)
(149.277457 -1.4848838 0)
(149.485209 -1.45318277 0)
(149.686057 -1.41541923 0)
(149.879177 -1.37232066 0)
(150.063884 -1.32463391 0)
(150.239632 -1.27310875 0)
(150.406005 -1.21848303 0)
(150.562716 -1.16146962 0)
(150.709595 -1.10274553 0)
(150.84658 -1.04294293 0)
(150.973702 -0.982642146 0)
(151.09108 -0.922366321 0)
(151.198906 -0.862577661 0)
(151.297437 -0.803675518 0)
(151.386985 -0.745998699 0)
(151.467912 -0.689833133 0)
(151.540614 -0.63541739 0)
(151.605515 -0.582945705 0)
(151.66305 -0.532570554 0)
(151.713662 -0.484405585 0)
(151.757793 -0.438528837 0)
(151.795883 -0.394986116 0)
(151.828362 -0.353794552 0)
(151.855648 -0.314947144 0)
(151.878146 -0.278417334 0)
(151.896245 -0.244160689 0)
(151.910319 -0.212118246 0)
(151.920724 -0.182220236 0)
(151.927799 -0.154389232 0)
(151.931862 -0.128542578 0)
(151.933215 -0.104594649 0)
(151.932139 -0.08246009 0)
(151.928887 -0.0620602977 0)
(151.92369 -0.0433355866 0)
(151.916762 -0.026244321 0)
(151.908331 -0.0107336682 0)
(151.898793 0.0033685379 0)
(151.888454 0.0161912905 0)
(151.877219 0.0278811273 0)
(151.865073 0.0383849447 0)
(151.852026 0.0477188817 0)
(151.838141 0.0559623391 0)
(151.823501 0.0632339955 0)
(151.808227 0.0696489996 0)
(151.79246 0.0753002401 0)
(151.776337 0.0802585815 0)
(151.759973 0.08457798 0)
(151.743458 0.0883042925 0)
(151.726865 0.0914803559 0)
(151.710253 0.0941464855 0)
(151.69367 0.0963410711 0)
(151.67715 0.0981015904 0)
(151.660729 0.0994645009 0)
(151.644435 0.10046452 0)
(151.628293 0.101134028 0)
(151.612332 0.101503122 0)
(151.596573 0.101599821 0)
(151.581041 0.101450086 0)
(151.565754 0.101077703 0)
(151.550733 0.10050422 0)
(151.535994 0.0997490187 0)
(151.521554 0.0988294634 0)
(151.507424 0.0977610533 0)
(151.493616 0.0965576055 0)
(151.480138 0.0952314782 0)
(151.466999 0.0937938156 0)
(151.454203 0.0922547812 0)
(151.441754 0.0906237628 0)
(151.429656 0.0889095363 0)
(151.41791 0.0871203716 0)
(151.406517 0.0852640869 0)
(151.395479 0.0833480627 0)
(151.384795 0.081379222 0)
(151.374466 0.079364 0)
(151.364492 0.0773083137 0)
(151.354873 0.07521752 0)
(151.345611 0.073096369 0)
(151.336705 0.0709489677 0)
(151.328156 0.068778733 0)
(151.319965 0.0665884089 0)
(151.312129 0.0643797416 0)
(151.30466 0.0621544919 0)
(151.297522 0.059909274 0)
(151.290839 0.057658581 0)
(151.2842 0.055323567 0)
(151.279126 0.053269686 0)
(151.26783 0.0496888713 0)
(151.738567 0.0748941637 0)
(151.71311 0.217716497 0)
(151.665681 0.339771454 0)
(151.595863 0.431585334 0)
(151.510771 0.485265376 0)
(151.417959 0.498187693 0)
(151.324104 0.473582678 0)
(151.235108 0.417009311 0)
(151.156341 0.333214891 0)
(151.092625 0.226749361 0)
(151.047895 0.105259459 0)
(151.024562 -0.0181704226 0)
(151.023805 -0.124448902 0)
(151.039773 -0.193057357 0)
(151.065835 -0.209430023 0)
(151.093161 -0.168021122 0)
(151.1126 -0.0735740898 0)
(151.117383 0.0600988232 0)
(151.102123 0.214036902 0)
(151.062643 0.368862488 0)
(150.999732 0.507409156 0)
(150.917048 0.616673761 0)
(150.820016 0.688652251 0)
(150.714973 0.72012878 0)
(150.60851 0.71183267 0)
(150.506943 0.667505927 0)
(150.415925 0.593305485 0)
(150.340114 0.497690954 0)
(150.282813 0.391634401 0)
(150.245513 0.288671328 0)
(150.227415 0.204173785 0)
(150.225137 0.153463456 0)
(150.232829 0.148934157 0)
(150.242771 0.196917733 0)
(150.246379 0.29540376 0)
(150.235619 0.433671781 0)
(150.204564 0.594242952 0)
(150.150532 0.756772529 0)
(150.074384 0.902816208 0)
(149.979937 1.01999821 0)
(149.872678 1.10423548 0)
(149.758222 1.15935777 0)
(149.640986 1.19444709 0)
(149.523469 1.22006619 0)
(149.406245 1.24485635 0)
(149.288518 1.27362905 0)
(149.1689 1.30727675 0)
(149.046099 1.3440256 0)
(148.919291 1.38113461 0)
(148.788188 1.41623237 0)
(148.652886 1.44790626 0)
(148.513669 1.47562021 0)
(148.370862 1.49929836 0)
(148.224779 1.51891663 0)
(148.075734 1.53428532 0)
(147.924079 1.54503005 0)
(147.770241 1.55067963 0)
(147.614731 1.55076418 0)
(147.458137 1.54487279 0)
(147.301114 1.53266773 0)
(147.14437 1.51387615 0)
(146.988657 1.48827946 0)
(146.834763 1.4557094 0)
(146.683503 1.41605013 0)
(146.535712 1.36924219 0)
(146.392237 1.31528474 0)
(146.253934 1.25423486 0)
(146.121659 1.1862043 0)
(145.996268 1.11135444 0)
(145.878605 1.02989069 0)
(145.769503 0.942057326 0)
(145.669774 0.848133386 0)
(145.580207 0.748429898 0)
(145.501562 0.643288286 0)
(145.434573 0.533080605 0)
(145.379943 0.418209589 0)
(145.338332 0.299106154 0)
(145.310377 0.176214894 0)
(145.296821 0.0500124941 0)
(145.299761 -0.0786518607 0)
(145.31905 -0.209093194 0)
(145.354199 -0.340722924 0)
(145.405568 -0.472815953 0)
(145.473376 -0.604554847 0)
(145.557724 -0.735069727 0)
(145.658576 -0.863435838 0)
(145.775742 -0.988671424 0)
(145.90887 -1.10975399 0)
(146.057432 -1.22564275 0)
(146.220721 -1.3353006 0)
(146.397846 -1.43771821 0)
(146.587744 -1.53193986 0)
(146.789189 -1.61708874 0)
(147.000808 -1.69239093 0)
(147.2211 -1.75719761 0)
(147.448466 -1.81100434 0)
(147.681233 -1.85346622 0)
(147.917684 -1.88440788 0)
(148.156097 -1.9038275 0)
(148.394768 -1.91189467 0)
(148.632048 -1.90894235 0)
(148.866376 -1.89545375 0)
(149.096296 -1.87204495 0)
(149.320481 -1.83944454 0)
(149.537751 -1.79847106 0)
(149.747082 -1.75000967 0)
(149.947611 -1.69498862 0)
(150.138638 -1.63435684 0)
(150.319622 -1.56906301 0)
(150.490176 -1.50003684 0)
(150.650052 -1.42817294 0)
(150.79914 -1.35431745 0)
(150.937442 -1.27925743 0)
(151.065069 -1.20371294 0)
(151.18222 -1.12833165 0)
(151.289172 -1.05368587 0)
(151.386266 -0.980271922 0)
(151.473896 -0.908512132 0)
(151.5525 -0.838759597 0)
(151.622544 -0.771303746 0)
(151.684516 -0.70637551 0)
(151.738911 -0.644152146 0)
(151.786228 -0.584762102 0)
(151.82696 -0.52829004 0)
(151.861592 -0.474781987 0)
(151.890595 -0.424250516 0)
(151.914421 -0.376679729 0)
(151.933503 -0.332029534 0)
(151.948252 -0.290238809 0)
(151.959056 -0.251228583 0)
(151.96628 -0.214905338 0)
(151.970269 -0.18116429 0)
(151.971346 -0.149892544 0)
(151.969817 -0.120971792 0)
(151.965961 -0.0942796915 0)
(151.960039 -0.0696883535 0)
(151.952298 -0.047060053 0)
(151.943006 -0.0262665918 0)
(151.932559 -0.00730397112 0)
(151.921256 0.00988656768 0)
(151.90893 0.0253845436 0)
(151.895656 0.039280011 0)
(151.881557 0.0516403304 0)
(151.866733 0.0625839498 0)
(151.851284 0.0722411716 0)
(151.835305 0.0807483267 0)
(151.818889 0.08823435 0)
(151.802122 0.0948073142 0)
(151.785072 0.100555777 0)
(151.767807 0.105554972 0)
(151.7504 0.109868739 0)
(151.732926 0.113549678 0)
(151.715455 0.116641728 0)
(151.698047 0.119184111 0)
(151.680754 0.121214342 0)
(151.663619 0.122769264 0)
(151.646676 0.123885181 0)
(151.629952 0.124598066 0)
(151.613468 0.124943099 0)
(151.597246 0.124953911 0)
(151.581301 0.1246621 0)
(151.565646 0.124096949 0)
(151.550296 0.123285317 0)
(151.535261 0.122251689 0)
(151.52055 0.121018332 0)
(151.506172 0.119605428 0)
(151.492135 0.118031221 0)
(151.478445 0.116312175 0)
(151.465108 0.114463139 0)
(151.452128 0.112497514 0)
(151.439509 0.110427397 0)
(151.427254 0.108263741 0)
(151.415364 0.106016499 0)
(151.403841 0.103694743 0)
(151.392687 0.101306776 0)
(151.3819 0.098860205 0)
(151.371481 0.0963619885 0)
(151.361429 0.0938184447 0)
(151.351743 0.0912352466 0)
(151.342423 0.0886174168 0)
(151.333467 0.085969324 0)
(151.324873 0.0832946482 0)
(151.316644 0.0805964195 0)
(151.308773 0.0778766649 0)
(151.301271 0.0751376657 0)
(151.294101 0.0723760239 0)
(151.287387 0.0696100228 0)
(151.280696 0.0667482423 0)
(151.275589 0.0642311888 0)
(151.264037 0.0598905034 0)
(151.738671 0.0896876838 0)
(151.713248 0.260919556 0)
(151.665673 0.407448742 0)
(151.595604 0.518344396 0)
(151.510249 0.584655827 0)
(151.417147 0.603365548 0)
(151.322875 0.578023564 0)
(151.233262 0.514836645 0)
(151.153673 0.419167848 0)
(151.088929 0.296253676 0)
(151.042809 0.155023618 0)
(151.017682 0.0111216707 0)
(151.016421 -0.113627573 0)
(151.032622 -0.197009031 0)
(151.058767 -0.221554748 0)
(151.086182 -0.180103082 0)
(151.105681 -0.0775614675 0)
(151.110732 0.0708865869 0)
(151.096833 0.243988091 0)
(151.059742 0.419188749 0)
(150.999768 0.57643848 0)
(150.91998 0.700521916 0)
(150.825472 0.782012887 0)
(150.722445 0.817016902 0)
(150.617439 0.806179216 0)
(150.516784 0.753577397 0)
(150.426208 0.666011179 0)
(150.350524 0.552906286 0)
(150.293262 0.426633831 0)
(150.256204 0.302652647 0)
(150.238867 0.198739613 0)
(150.238124 0.132845011 0)
(150.24816 0.119734573 0)
(150.261021 0.167304888 0)
(150.267881 0.273848361 0)
(150.260615 0.427409347 0)
(150.233215 0.607861014 0)
(150.182798 0.791380406 0)
(150.109954 0.95608406 0)
(150.018259 1.08707326 0)
(149.913069 1.17924174 0)
(149.799989 1.23697906 0)
(149.683523 1.27108615 0)
(149.566287 1.29427315 0)
(149.448948 1.31702925 0)
(149.330754 1.34525673 0)
(149.210309 1.38010471 0)
(149.086277 1.41945421 0)
(148.957783 1.45997662 0)
(148.824494 1.49877332 0)
(148.686476 1.5341121 0)
(148.543997 1.56533965 0)
(148.397379 1.59237685 0)
(148.246936 1.61521605 0)
(148.092992 1.63364954 0)
(147.935919 1.64724166 0)
(147.77617 1.65543454 0)
(147.61429 1.65766852 0)
(147.450913 1.65345373 0)
(147.286748 1.64238839 0)
(147.122562 1.62414887 0)
(146.959176 1.59847613 0)
(146.797449 1.56516977 0)
(146.638274 1.52408897 0)
(146.482565 1.47515524 0)
(146.331246 1.41835333 0)
(146.185237 1.35372959 0)
(146.045451 1.28138875 0)
(145.912778 1.20149037 0)
(145.788084 1.11424505 0)
(145.672217 1.01991051 0)
(145.566003 0.918787063 0)
(145.470252 0.811212956 0)
(145.385761 0.697560878 0)
(145.313307 0.578236449 0)
(145.253646 0.453679129 0)
(145.207506 0.324371525 0)
(145.175585 0.190855314 0)
(145.158505 0.0537098912 0)
(145.158555 -0.0865541622 0)
(145.175802 -0.229278192 0)
(145.209759 -0.373722084 0)
(145.260837 -0.51908829 0)
(145.329328 -0.664482743 0)
(145.415403 -0.808920227 0)
(145.519088 -0.951336664 0)
(145.640245 -1.09059786 0)
(145.778552 -1.2255142 0)
(145.933499 -1.3548611 0)
(146.10437 -1.47740364 0)
(146.290243 -1.59192621 0)
(146.489988 -1.69726638 0)
(146.702283 -1.7923504 0)
(146.92562 -1.87622755 0)
(147.158338 -1.9481011 0)
(147.39865 -2.00735371 0)
(147.644676 -2.05356602 0)
(147.894488 -2.08652797 0)
(148.146145 -2.10624243 0)
(148.397739 -2.1129215 0)
(148.647429 -2.10697575 0)
(148.893478 -2.08899723 0)
(149.134282 -2.05973725 0)
(149.368394 -2.0200802 0)
(149.594542 -1.97101491 0)
(149.811641 -1.91360505 0)
(150.018796 -1.84895969 0)
(150.2153 -1.77820552 0)
(150.400633 -1.7024613 0)
(150.574448 -1.62281551 0)
(150.736557 -1.54030739 0)
(150.886919 -1.45591168 0)
(151.025624 -1.3705271 0)
(151.152867 -1.2849681 0)
(151.268945 -1.19996007 0)
(151.374227 -1.11613741 0)
(151.469148 -1.03404419 0)
(151.55419 -0.95413745 0)
(151.62987 -0.876792464 0)
(151.69673 -0.802309163 0)
(151.755324 -0.730918886 0)
(151.806208 -0.662791022 0)
(151.849933 -0.598039533 0)
(151.887037 -0.536729274 0)
(151.918043 -0.478882069 0)
(151.943455 -0.424482436 0)
(151.96375 -0.373483038 0)
(151.979387 -0.325810014 0)
(151.9908 -0.2813682 0)
(151.998398 -0.240046286 0)
(152.002569 -0.201721639 0)
(152.003672 -0.166264369 0)
(152.002042 -0.133540556 0)
(151.997991 -0.10341511 0)
(151.99181 -0.0757549519 0)
(151.983772 -0.0504326564 0)
(151.974105 -0.0273219067 0)
(151.962868 -0.00625640935 0)
(151.950421 0.0129922975 0)
(151.937105 0.0303456508 0)
(151.922989 0.0459210192 0)
(151.908116 0.0598364834 0)
(151.892548 0.072205129 0)
(151.876367 0.0831467146 0)
(151.859657 0.0927743504 0)
(151.842499 0.101197301 0)
(151.82498 0.108518116 0)
(151.807196 0.114829727 0)
(151.789245 0.120220359 0)
(151.771213 0.124776506 0)
(151.753164 0.128580385 0)
(151.735147 0.131707145 0)
(151.717208 0.134223698 0)
(151.699384 0.136188416 0)
(151.681711 0.1376516 0)
(151.664221 0.138657037 0)
(151.64694 0.139243804 0)
(151.629896 0.139447793 0)
(151.61311 0.139302361 0)
(151.596604 0.138838547 0)
(151.580394 0.138085272 0)
(151.564495 0.137069534 0)
(151.548921 0.135816501 0)
(151.533684 0.134349475 0)
(151.518794 0.132689845 0)
(151.504259 0.130857108 0)
(151.490087 0.128868973 0)
(151.476281 0.1267415 0)
(151.462846 0.124489272 0)
(151.449785 0.122125555 0)
(151.437097 0.119662462 0)
(151.424784 0.117111084 0)
(151.412845 0.114481597 0)
(151.40128 0.111783323 0)
(151.390088 0.109024781 0)
(151.379267 0.106213703 0)
(151.368817 0.103357047 0)
(151.358736 0.100461023 0)
(151.349023 0.0975311102 0)
(151.339677 0.0945720823 0)
(151.330697 0.0915880142 0)
(151.322081 0.0885822668 0)
(151.31383 0.0855575557 0)
(151.305938 0.0825156601 0)
(151.298415 0.0794586644 0)
(151.291223 0.0763833185 0)
(151.284486 0.0733081358 0)
(151.277786 0.070139695 0)
(151.272659 0.0673440543 0)
(151.261276 0.0625850335 0)
(151.738794 0.104573567 0)
(151.71345 0.304942139 0)
(151.665594 0.477196826 0)
(151.594639 0.608295369 0)
(151.507685 0.687406615 0)
(151.412427 0.710636307 0)
(151.315771 0.681861119 0)
(151.223894 0.608189756 0)
(151.14248 0.495882275 0)
(151.076725 0.351153644 0)
(151.030978 0.184549079 0)
(151.008073 0.0145659958 0)
(151.009742 -0.133609358 0)
(151.029055 -0.233510317 0)
(151.059233 -0.264532405 0)
(151.090894 -0.218044328 0)
(151.114354 -0.0994711522 0)
(151.122787 0.0738280587 0)
(151.111427 0.277084607 0)
(151.075415 0.483496004 0)
(151.015231 0.669087278 0)
(150.934205 0.815727084 0)
(150.837709 0.912200632 0)
(150.732287 0.953823629 0)
(150.624892 0.941256078 0)
(150.52229 0.879204636 0)
(150.430606 0.775588194 0)
(150.354951 0.641422265 0)
(150.299003 0.491196848 0)
(150.264533 0.34305404 0)
(150.250901 0.217891122 0)
(150.25473 0.136843366 0)
(150.270007 0.117362385 0)
(150.288697 0.168898605 0)
(150.301758 0.289663951 0)
(150.300582 0.465870471 0)
(150.278644 0.674108355 0)
(150.232719 0.886529556 0)
(150.163258 1.07743434 0)
(150.073853 1.2292071 0)
(149.96999 1.33566218 0)
(149.857461 1.40176668 0)
(149.740967 1.44008379 0)
(149.623288 1.46551948 0)
(149.505199 1.49046351 0)
(149.385977 1.52196983 0)
(149.264199 1.56151021 0)
(149.138455 1.60668 0)
(149.007783 1.65360202 0)
(148.871765 1.69886153 0)
(148.730404 1.74039183 0)
(148.583923 1.77739085 0)
(148.432619 1.80973895 0)
(148.276796 1.8374098 0)
(148.116781 1.86014737 0)
(147.952963 1.87742855 0)
(147.78582 1.88858469 0)
(147.615941 1.89294262 0)
(147.444011 1.88990963 0)
(147.270801 1.8789961 0)
(147.09715 1.85980465 0)
(146.923954 1.8320148 0)
(146.752148 1.79537674 0)
(146.582697 1.74971339 0)
(146.416584 1.69492493 0)
(146.254802 1.63099068 0)
(146.098341 1.55796692 0)
(145.948189 1.47598102 0)
(145.805322 1.38522351 0)
(145.670698 1.28593906 0)
(145.545252 1.1784181 0)
(145.429888 1.0629895 0)
(145.325477 0.940015445 0)
(145.232858 0.809888898 0)
(145.152843 0.673033851 0)
(145.086224 0.529908332 0)
(145.033782 0.381009619 0)
(144.996275 0.226875088 0)
(144.974436 0.0681039342 0)
(144.970818 -0.0945984496 0)
(144.98559 -0.260445993 0)
(145.018053 -0.42857381 0)
(145.068726 -0.598035689 0)
(145.138035 -0.767776239 0)
(145.226279 -0.936627595 0)
(145.333593 -1.1033173 0)
(145.459932 -1.26647796 0)
(145.605039 -1.42466626 0)
(145.768427 -1.57639163 0)
(145.949361 -1.72015038 0)
(146.146855 -1.85446374 0)
(146.359671 -1.9779186 0)
(146.586334 -2.08920926 0)
(146.825149 -2.18717819 0)
(147.07423 -2.27085389 0)
(147.331543 -2.33948359 0)
(147.594942 -2.39255829 0)
(147.862222 -2.42982859 0)
(148.131169 -2.45131027 0)
(148.39961 -2.45727946 0)
(148.665456 -2.4482582 0)
(148.926752 -2.42499166 0)
(149.181707 -2.38841866 0)
(149.428723 -2.33963754 0)
(149.666416 -2.27986911 0)
(149.893628 -2.21041891 0)
(150.109424 -2.13264019 0)
(150.3131 -2.04789932 0)
(150.504161 -1.95754462 0)
(150.682317 -1.86287942 0)
(150.847456 -1.76513979 0)
(150.999633 -1.66547713 0)
(151.139039 -1.56494546 0)
(151.265987 -1.46449304 0)
(151.380887 -1.36495807 0)
(151.484229 -1.26706786 0)
(151.57656 -1.17144095 0)
(151.658471 -1.07859174 0)
(151.730583 -0.988937069 0)
(151.793528 -0.902803861 0)
(151.847946 -0.820437549 0)
(151.894469 -0.742010552 0)
(151.933718 -0.667630746 0)
(151.966292 -0.597349778 0)
(151.992768 -0.531171204 0)