/*--------------------------------*- C++ -*----------------------------------*\
| =========                 |                                                 |
| \\      /  F ield         | OpenFOAM: The Open Source CFD Toolbox           |
|  \\    /   O peration     | Version:  v2012                                 |
|   \\  /    A nd           | Website:  www.openfoam.com                      |
|    \\/     M anipulation  |                                                 |
\*---------------------------------------------------------------------------*/
FoamFile
{
    version     2.0;
    format      ascii;
    class       volVectorField;
    location    "2.29";
    object      HbyA;
}
// * * * * * * * * * * * * * * * * * * * * * * * * * * * * * * * * * * * * * //

dimensions      [0 1 -1 0 0 0 0];


internalField   nonuniform List<vector> 
28416
(
(0.099997574 1.51266702e-05 0)
(0.0999796921 4.43159964e-05 0)
(0.0999464428 6.98178343e-05 0)
(0.0999011071 8.88609529e-05 0)
(0.099848519 9.89369507e-05 0)
(0.0997929744 9.91586465e-05 0)
(0.0997380182 9.03372492e-05 0)
(0.099686753 7.39394003e-05 0)
(0.0996420493 5.11949383e-05 0)
(0.0996068309 2.3182956e-05 0)
(0.0995833311 -8.70918418e-06 0)
(0.0995687939 -4.24207753e-05 0)
(0.099560246 -7.01411032e-05 0)
(0.0995578247 -8.52042347e-05 0)
(0.0995594992 -8.39589994e-05 0)
(0.0995615979 -6.55388097e-05 0)
(0.0995607325 -3.20477864e-05 0)
(0.0995544953 1.12491587e-05 0)
(0.0995381622 5.74760761e-05 0)
(0.0995079565 0.000102898731 0)
(0.0994656994 0.000144029974 0)
(0.0994148026 0.000177209865 0)
(0.0993581212 0.000199851795 0)
(0.0992984612 0.000210798683 0)
(0.0992387564 0.000210112241 0)
(0.0991817372 0.000198917566 0)
(0.0991297768 0.000179283923 0)
(0.0990848278 0.000154095463 0)
(0.0990482435 0.000126943135 0)
(0.09902051 0.000101977794 0)
(0.0990009812 8.36014306e-05 0)
(0.0989877254 7.59332607e-05 0)
(0.0989776487 8.21049986e-05 0)
(0.0989669965 0.000103522152 0)
(0.0989519551 0.000139287257 0)
(0.0989291722 0.000186167594 0)
(0.0988963865 0.000239224917 0)
(0.0988528922 0.000292867959 0)
(0.0987995178 0.000342094484 0)
(0.0987382264 0.000383551165 0)
(0.0986714971 0.00041606858 0)
(0.0986016693 0.000440524855 0)
(0.0985304496 0.000459143655 0)
(0.0984587012 0.00047453493 0)
(0.0983865259 0.000488848161 0)
(0.0983135421 0.000503305451 0)
(0.098239214 0.000518180509 0)
(0.098163106 0.000533098357 0)
(0.0980850012 0.000547437738 0)
(0.0980048953 0.000560645531 0)
(0.0979229217 0.000572375728 0)
(0.0978392705 0.00058247326 0)
(0.0977541371 0.000590881927 0)
(0.0976677086 0.000597554797 0)
(0.0975801753 0.000602408073 0)
(0.0974917482 0.000605319171 0)
(0.0974026715 0.000606147992 0)
(0.0973132261 0.0006047597 0)
(0.0972237274 0.000601037965 0)
(0.0971345206 0.000594888333 0)
(0.0970459764 0.000586236471 0)
(0.0969584878 0.000575025748 0)
(0.0968724667 0.000561216118 0)
(0.0967883408 0.000544784288 0)
(0.0967065495 0.000525724489 0)
(0.0966275387 0.000504049535 0)
(0.0965517572 0.000479792205 0)
(0.0964796523 0.000453007106 0)
(0.0964116681 0.000423772728 0)
(0.0963482453 0.000392193004 0)
(0.0962898222 0.000358397384 0)
(0.0962368364 0.000322538898 0)
(0.0961897265 0.000284789961 0)
(0.096148931 0.000245336068 0)
(0.0961148879 0.000204367165 0)
(0.0960880571 0.000162070456 0)
(0.0960688857 0.000118572038 0)
(0.0960576351 7.39493192e-05 0)
(0.0960540556 2.83887927e-05 0)
(0.0960583767 -1.72935136e-05 0)
(0.0960717985 -6.28536594e-05 0)
(0.0960947617 -0.000108572647 0)
(0.0961269319 -0.000154313775 0)
(0.0961682448 -0.000199780404 0)
(0.0962187237 -0.000244710677 0)
(0.0962782465 -0.000288833881 0)
(0.0963466034 -0.000331857516 0)
(0.0964235247 -0.000373480645 0)
(0.0965086601 -0.000413395053 0)
(0.0966015749 -0.00045128445 0)
(0.096701761 -0.000486830038 0)
(0.0968086453 -0.000519720644 0)
(0.096921597 -0.000549665098 0)
(0.0970399342 -0.000576404897 0)
(0.0971629318 -0.000599724893 0)
(0.0972898276 -0.00061946036 0)
(0.0974198308 -0.000635500284 0)
(0.0975521309 -0.000647787741 0)
(0.0976859096 -0.000656318483 0)
(0.0978203527 -0.000661138604 0)
(0.0979546626 -0.000662341662 0)
(0.0980880702 -0.000660065222 0)
(0.0982198456 -0.00065448669 0)
(0.0983493073 -0.000645818338 0)
(0.0984758295 -0.000634301608 0)
(0.0985988481 -0.000620200874 0)
(0.0987178644 -0.000603796937 0)
(0.0988324474 -0.000585380524 0)
(0.0989422349 -0.000565246056 0)
(0.0990469327 -0.000543685909 0)
(0.0991463124 -0.000520985318 0)
(0.0992402088 -0.000497418033 0)
(0.0993285151 -0.000473242717 0)
(0.0994111781 -0.000448699951 0)
(0.0994881912 -0.00042400964 0)
(0.0995595857 -0.000399368178 0)
(0.0996254275 -0.000374943727 0)
(0.0996858352 -0.000350873582 0)
(0.0997409834 -0.00032727612 0)
(0.0997910772 -0.000304255125 0)
(0.0998363381 -0.000281899775 0)
(0.0998769975 -0.000260284501 0)
(0.0999132936 -0.000239469361 0)
(0.099945468 -0.000219500736 0)
(0.0999737626 -0.000200412133 0)
(0.099998416 -0.000182224673 0)
(0.100019661 -0.000164946231 0)
(0.100037728 -0.000148571287 0)
(0.100052845 -0.00013308614 0)
(0.100065236 -0.000118472019 0)
(0.100075118 -0.000104706593 0)
(0.1000827 -9.17645352e-05 0)
(0.100088178 -7.96174846e-05 0)
(0.100091743 -6.82336856e-05 0)
(0.100093574 -5.75774184e-05 0)
(0.100093845 -4.76075813e-05 0)
(0.100092722 -3.827315e-05 0)
(0.100090377 -2.95123258e-05 0)
(0.100087009 -2.12667426e-05 0)
(0.100082867 -1.35260119e-05 0)
(0.100078275 -6.43060842e-06 0)
(0.100073389 -2.4197896e-07 0)
(0.100067806 4.97256823e-06 0)
(0.100061176 9.45593611e-06 0)
(0.100053623 1.34137872e-05 0)
(0.100045329 1.69692764e-05 0)
(0.100036463 2.0200248e-05 0)
(0.100027171 2.31522886e-05 0)
(0.100017559 2.58509715e-05 0)
(0.100007706 2.83136339e-05 0)
(0.099997684 3.05502772e-05 0)
(0.0999875563 3.25640842e-05 0)
(0.0999773732 3.43555086e-05 0)
(0.0999671712 3.59263469e-05 0)
(0.0999569775 3.72818404e-05 0)
(0.0999468141 3.84309483e-05 0)
(0.0999366998 3.93856934e-05 0)
(0.0999266518 4.01602301e-05 0)
(0.0999166862 4.07698555e-05 0)
(0.0999068187 4.12300925e-05 0)
(0.099897065 4.15559425e-05 0)
(0.09988744 4.17613301e-05 0)
(0.0998779581 4.18587312e-05 0)
(0.099868633 4.18589896e-05 0)
(0.0998594769 4.17713273e-05 0)
(0.0998505009 4.16034941e-05 0)
(0.0998417143 4.13619861e-05 0)
(0.0998331251 4.10522999e-05 0)
(0.0998247399 4.06792022e-05 0)
(0.0998165636 4.02469929e-05 0)
(0.0998086003 3.97597311e-05 0)
(0.0998008527 3.92214045e-05 0)
(0.0997933229 3.86360345e-05 0)
(0.0997860124 3.80077148e-05 0)
(0.0997789224 3.7340594e-05 0)
(0.0997720537 3.66388188e-05 0)
(0.0997654073 3.59064505e-05 0)
(0.099758984 3.51473639e-05 0)
(0.0997527848 3.43651512e-05 0)
(0.0997468107 3.35630564e-05 0)
(0.0997410629 3.27439505e-05 0)
(0.0997355423 3.19103198e-05 0)
(0.0997302511 3.10643001e-05 0)
(0.0997251886 3.02075146e-05 0)
(0.0997203635 2.93416976e-05 0)
(0.0997157556 2.84656914e-05 0)
(0.0997114487 2.75879387e-05 0)
(0.0997071803 2.66684438e-05 0)
(0.0997039411 2.58751438e-05 0)
(0.0996986364 2.43946837e-05 0)
(0.0999983039 3.16879663e-05 0)
(0.0999833582 9.16657609e-05 0)
(0.0999520263 0.00014266868 0)
(0.0999062648 0.000180536022 0)
(0.0998512628 0.000201692338 0)
(0.0997921038 0.000205045895 0)
(0.0997329275 0.000192171 0)
(0.0996772562 0.000165621809 0)
(0.0996282734 0.000127506747 0)
(0.0995886885 7.97491998e-05 0)
(0.0995597199 2.53226305e-05 0)
(0.0995433636 -3.01467402e-05 0)
(0.0995407636 -7.64733924e-05 0)
(0.0995487787 -0.000104413574 0)
(0.0995626945 -0.000107572826 0)
(0.099577316 -8.39770638e-05 0)
(0.0995867063 -3.651434e-05 0)
(0.0995855882 2.77247507e-05 0)
(0.0995714349 9.90431231e-05 0)
(0.0995431898 0.000169550705 0)
(0.0995007526 0.000232565899 0)
(0.0994463545 0.000282477271 0)
(0.099383633 0.000315683272 0)
(0.0993165884 0.000330772456 0)
(0.0992491997 0.000328079139 0)
(0.0991851685 0.000309313186 0)
(0.099127715 0.00027737197 0)
(0.0990794437 0.000236284668 0)
(0.0990421646 0.000191244272 0)
(0.0990166209 0.000148549521 0)
(0.0990021926 0.000115204489 0)
(0.0989967144 9.80334654e-05 0)
(0.0989965389 0.000102391927 0)
(0.0989969102 0.000130782131 0)
(0.0989926351 0.000181857286 0)
(0.0989789774 0.000250401308 0)
(0.0989525934 0.000328390805 0)
(0.0989121874 0.000406771732 0)
(0.0988586355 0.000477529462 0)
(0.0987945527 0.000535427989 0)
(0.0987234526 0.000578857197 0)
(0.0986487761 0.000609559288 0)
(0.0985731 0.000631425205 0)
(0.0984977501 0.000648882498 0)
(0.0984228695 0.000665491937 0)
(0.0983478178 0.000683196004 0)
(0.098271682 0.000702322908 0)
(0.0981936882 0.000722126601 0)
(0.0981134059 0.000741487291 0)
(0.0980307479 0.000759447136 0)
(0.0979458536 0.000775436104 0)
(0.0978589521 0.000789229127 0)
(0.0977702739 0.000800775733 0)
(0.097680024 0.000810038897 0)
(0.0975883977 0.000816913154 0)
(0.0974956095 0.000821221326 0)
(0.0974019138 0.000822751877 0)
(0.0973076112 0.000821298484 0)
(0.0972130451 0.000816682606 0)
(0.0971185938 0.000808758768 0)
(0.0970246639 0.000797411178 0)
(0.0969316852 0.000782549673 0)
(0.0968401077 0.000764108415 0)
(0.0967503973 0.000742046984 0)
(0.0966630324 0.000716352184 0)
(0.0965784998 0.000687039274 0)
(0.0964972907 0.000654152178 0)
(0.0964198977 0.00061776283 0)
(0.0963468121 0.000577969861 0)
(0.0962785218 0.000534896805 0)
(0.0962155094 0.000488689908 0)
(0.096158251 0.000439515765 0)
(0.0961072131 0.000387558408 0)
(0.0960628496 0.000333016763 0)
(0.0960256003 0.000276101416 0)
(0.0959958548 0.000217029086 0)
(0.0959739374 0.000155995628 0)
(0.095960192 9.3211408e-05 0)
(0.0959552847 2.90271391e-05 0)
(0.0959596236 -3.59735534e-05 0)
(0.095973156 -0.000101354154 0)
(0.0959961284 -0.000167026972 0)
(0.0960288034 -0.000232700945 0)
(0.0960712261 -0.00029796742 0)
(0.0961233832 -0.000362435681 0)
(0.0961851911 -0.000425691818 0)
(0.096256473 -0.000487285599 0)
(0.0963369667 -0.000546751262 0)
(0.09642632 -0.000603618269 0)
(0.0965240887 -0.00065741833 0)
(0.0966297412 -0.000707696446 0)
(0.0967426654 -0.000754023058 0)
(0.0968621751 -0.000796005307 0)
(0.0969875173 -0.000833297475 0)
(0.0971178819 -0.000865610401 0)
(0.0972524114 -0.000892719339 0)
(0.0973902126 -0.000914469968 0)
(0.0975303702 -0.000930782271 0)
(0.0976719614 -0.00094165206 0)
(0.097814071 -0.000947150066 0)
(0.0979558066 -0.000947418728 0)
(0.0980963122 -0.000942666928 0)
(0.0982347813 -0.000933163049 0)
(0.098370467 -0.000919226736 0)
(0.0985026908 -0.000901219743 0)
(0.0986308484 -0.000879536282 0)
(0.0987544142 -0.000854593207 0)
(0.0988729433 -0.000826820402 0)
(0.0989860708 -0.00079665168 0)
(0.099093511 -0.000764516429 0)
(0.0991950536 -0.000730832208 0)
(0.0992905593 -0.000695998386 0)
(0.0993799545 -0.000660390855 0)
(0.0994632245 -0.000624357639 0)
(0.0995404076 -0.000588215147 0)
(0.0996115879 -0.000552244346 0)
(0.0996768928 -0.00051668536 0)
(0.0997364919 -0.000481735739 0)
(0.0997905925 -0.000447565508 0)
(0.0998394286 -0.000414322787 0)
(0.0998832512 -0.000382133679 0)
(0.0999223222 -0.000351101958 0)
(0.0999569092 -0.000321309586 0)
(0.0999872824 -0.000292817854 0)
(0.100013711 -0.000265668744 0)
(0.100036462 -0.000239886132 0)
(0.100055797 -0.000215476111 0)
(0.10007197 -0.000192427939 0)
(0.100085226 -0.000170718428 0)
(0.100095797 -0.00015031495 0)
(0.100103908 -0.000131177298 0)
(0.100109776 -0.000113259009 0)
(0.100113605 -9.65085163e-05 0)
(0.100115593 -8.08703242e-05 0)
(0.100115929 -6.6286408e-05 0)
(0.100114802 -5.26986344e-05 0)
(0.100112402 -4.00541749e-05 0)
(0.100108909 -2.83094659e-05 0)
(0.100104462 -1.74375662e-05 0)
(0.100099082 -7.43656308e-06 0)
(0.100092782 1.68927415e-06 0)
(0.100085804 9.78110643e-06 0)
(0.100078326 1.67280965e-05 0)
(0.100070312 2.27381868e-05 0)
(0.100061748 2.80093762e-05 0)
(0.10005267 3.26761715e-05 0)
(0.100043155 3.68264824e-05 0)
(0.100033293 4.05142444e-05 0)
(0.100023158 4.37800215e-05 0)
(0.100012812 4.66635689e-05 0)
(0.10000231 4.9200926e-05 0)
(0.099991706 5.14206766e-05 0)
(0.0999810476 5.33448836e-05 0)
(0.0999703762 5.49918102e-05 0)
(0.099959727 5.63779603e-05 0)
(0.0999491293 5.75190294e-05 0)
(0.0999386084 5.84304563e-05 0)
(0.0999281849 5.91278224e-05 0)
(0.0999178769 5.96269368e-05 0)
(0.0999076998 5.99435985e-05 0)
(0.0998976675 6.00932664e-05 0)
(0.0998877923 6.00907955e-05 0)
(0.0998780855 5.99502284e-05 0)
(0.0998685573 5.96846021e-05 0)
(0.0998592168 5.93058208e-05 0)
(0.0998500723 5.88246321e-05 0)
(0.0998411309 5.82506835e-05 0)
(0.0998323988 5.75926209e-05 0)
(0.0998238812 5.68582089e-05 0)
(0.0998155823 5.60544598e-05 0)
(0.0998075054 5.51877593e-05 0)
(0.0997996531 5.42639787e-05 0)
(0.0997920276 5.32885678e-05 0)
(0.0997846301 5.22666224e-05 0)
(0.0997774618 5.12029278e-05 0)
(0.0997705234 5.01019769e-05 0)
(0.0997638156 4.8967973e-05 0)
(0.0997573387 4.7804824e-05 0)
(0.0997510931 4.6616123e-05 0)
(0.099745079 4.54051196e-05 0)
(0.0997392969 4.41746973e-05 0)
(0.0997337469 4.29273383e-05 0)
(0.0997284302 4.16651339e-05 0)
(0.0997233453 4.03895375e-05 0)
(0.0997185002 3.91020517e-05 0)
(0.099713872 3.7800572e-05 0)
(0.0997095448 3.64945092e-05 0)
(0.0997052397 3.5132985e-05 0)
(0.0997019668 3.39383005e-05 0)
(0.0996964715 3.18163773e-05 0)
(0.0999979369 3.88183799e-05 0)
(0.0999816974 0.000112193064 0)
(0.0999497209 0.000174252334 0)
(0.0999042254 0.000220515992 0)
(0.0998500007 0.000247190785 0)
(0.0997917689 0.000253067617 0)
(0.0997334668 0.000239889386 0)
(0.0996784862 0.000210531312 0)
(0.0996299146 0.000167394542 0)
(0.0995905467 0.000112779607 0)
(0.0995627542 5.07636716e-05 0)
(0.0995471709 -1.07819609e-05 0)
(0.0995426949 -6.29444257e-05 0)
(0.099547574 -9.63255792e-05 0)
(0.0995583968 -0.000103338468 0)
(0.0995700799 -8.11386047e-05 0)
(0.099577475 -3.22792409e-05 0)
(0.0995762085 3.66474597e-05 0)
(0.0995627326 0.000116421144 0)
(0.0995353067 0.000196472582 0)
(0.0994945577 0.000267826706 0)
(0.0994426713 0.000323974482 0)
(0.0993827646 0.000360878882 0)
(0.0993184229 0.000376884135 0)
(0.0992533514 0.000372366725 0)
(0.0991910875 0.000349286478 0)
(0.0991347893 0.000310890134 0)
(0.099087077 0.000261644086 0)
(0.0990498333 0.000207313676 0)
(0.0990239252 0.000154953891 0)
(0.0990088992 0.000112506928 0)
(0.0990027634 8.78193251e-05 0)
(0.0990019997 8.71721398e-05 0)
(0.0990019542 0.000113723295 0)
(0.0989975905 0.000166385597 0)
(0.0989843783 0.000239617033 0)
(0.0989590929 0.000324389203 0)
(0.0989203698 0.000410174777 0)
(0.0988688446 0.000487409846 0)
(0.0988068061 0.00054966413 0)
(0.0987374604 0.000594807775 0)
(0.0986640423 0.00062481985 0)
(0.0985890609 0.000644403598 0)
(0.0985138975 0.000659022027 0)
(0.0984388225 0.000673130377 0)
(0.0983633335 0.000689191729 0)
(0.0982866192 0.000707640843 0)
(0.0982079517 0.000727542409 0)
(0.0981268972 0.000747474829 0)
(0.0980433376 0.000766219604 0)
(0.0979573755 0.000783059728 0)
(0.0978692134 0.000797730346 0)
(0.0977790694 0.000810199368 0)
(0.0976871483 0.000820455645 0)
(0.0975936523 0.000828398491 0)
(0.0974988065 0.000833830371 0)
(0.0974028772 0.000836504232 0)
(0.0973061789 0.000836175029 0)
(0.0972090712 0.000832629461 0)
(0.0971119514 0.00082569297 0)
(0.0970152481 0.000815225067 0)
(0.0969194159 0.000801113495 0)
(0.096824931 0.000783271833 0)
(0.096732287 0.000761640164 0)
(0.0966419901 0.000736186705 0)
(0.0965545541 0.000706908924 0)
(0.0964704946 0.000673833848 0)
(0.0963903249 0.000637017973 0)
(0.0963145526 0.000596547043 0)
(0.0962436777 0.000552535491 0)
(0.0961781923 0.000505125217 0)
(0.0961185816 0.000454483352 0)
(0.0960653234 0.00040079901 0)
(0.0960188874 0.000344280346 0)
(0.0959797314 0.000285152648 0)
(0.0959482992 0.000223656436 0)
(0.0959250323 0.000160076675 0)
(0.0959103544 9.47456229e-05 0)
(0.0959043856 2.79996112e-05 0)
(0.0959073858 -4.00166729e-05 0)
(0.0959199813 -0.0001089941 0)
(0.0959424892 -0.000178527508 0)
(0.0959749909 -0.000248267082 0)
(0.096017565 -0.000317810143 0)
(0.0960702482 -0.000386707448 0)
(0.0961329828 -0.000454483206 0)
(0.0962056124 -0.000520634353 0)
(0.0962878893 -0.000584637453 0)
(0.0963794709 -0.000645957815 0)
(0.0964799151 -0.000704057926 0)
(0.0965886824 -0.000758408797 0)
(0.0967051396 -0.000808504127 0)
(0.0968285659 -0.000853875602 0)
(0.0969581601 -0.000894108104 0)
(0.0970930519 -0.000928853443 0)
(0.0972323145 -0.000957841248 0)
(0.0973749796 -0.000980886403 0)
(0.0975200542 -0.00099789302 0)
(0.0976665378 -0.00100885527 0)
(0.0978134405 -0.00101385547 0)
(0.0979597997 -0.00101305976 0)
(0.0981046958 -0.00100671161 0)
(0.0982472668 -0.000995123406 0)
(0.0983867194 -0.000978666496 0)
(0.0985223387 -0.000957760074 0)
(0.0986534946 -0.00093285945 0)
(0.0987796458 -0.000904444176 0)
(0.0989003415 -0.000873006499 0)
(0.0990152207 -0.000839040557 0)
(0.099124009 -0.000803032582 0)
(0.0992265147 -0.000765452332 0)
(0.0993226228 -0.000726745884 0)
(0.0994122885 -0.000687329762 0)
(0.0994955298 -0.000647586301 0)
(0.0995724206 -0.000607860156 0)
(0.0996430829 -0.000568455814 0)
(0.0997076815 -0.000529636353 0)
(0.0997664183 -0.000491624947 0)
(0.099819527 -0.000454609932 0)
(0.099867265 -0.000418748446 0)
(0.099909906 -0.000384168416 0)
(0.0999477333 -0.000350970257 0)
(0.0999810347 -0.000319228809 0)
(0.100010098 -0.000288995452 0)
(0.10003521 -0.000260300333 0)
(0.100056649 -0.000233154708 0)
(0.100074689 -0.000207553937 0)
(0.100089594 -0.000183480499 0)
(0.100101618 -0.000160905097 0)
(0.100111004 -0.000139788862 0)
(0.100117985 -0.000120085807 0)
(0.100122782 -0.000101744905 0)
(0.100125604 -8.47116796e-05 0)
(0.100126647 -6.89297035e-05 0)
(0.100126095 -5.43427272e-05 0)
(0.100124114 -4.08989524e-05 0)
(0.100120854 -2.8559048e-05 0)
(0.100116457 -1.72955795e-05 0)
(0.100111071 -7.07373332e-06 0)
(0.100104911 2.21994644e-06 0)
(0.100098112 1.06704464e-05 0)
(0.100090712 1.83743283e-05 0)
(0.100082727 2.52965996e-05 0)
(0.100074163 3.14478989e-05 0)
(0.100065061 3.68805548e-05 0)
(0.100055474 4.16727799e-05 0)
(0.100045478 4.59004599e-05 0)
(0.100035166 4.96248101e-05 0)
(0.100024627 5.28925313e-05 0)
(0.100013935 5.57391808e-05 0)
(0.100003148 5.81949783e-05 0)
(0.0999923146 6.02881534e-05 0)
(0.0999814717 6.20452737e-05 0)
(0.09997065 6.34916377e-05 0)
(0.0999598737 6.46519437e-05 0)
(0.0999491634 6.55502167e-05 0)
(0.099938538 6.62093355e-05 0)
(0.0999280151 6.66506393e-05 0)
(0.0999176111 6.68939611e-05 0)
(0.0999073413 6.69577666e-05 0)
(0.0998972201 6.68591633e-05 0)
(0.0998872609 6.66138267e-05 0)
(0.0998774761 6.62359568e-05 0)
(0.0998678768 6.57383267e-05 0)
(0.0998584726 6.5132379e-05 0)
(0.0998492719 6.4428328e-05 0)
(0.0998402817 6.36352791e-05 0)
(0.0998315079 6.2761377e-05 0)
(0.0998229551 6.18139655e-05 0)
(0.0998146267 6.07997425e-05 0)
(0.0998065254 5.97248951e-05 0)
(0.0997986529 5.85952064e-05 0)
(0.0997910104 5.74161266e-05 0)
(0.0997835985 5.61928084e-05 0)
(0.0997764178 5.49301155e-05 0)
(0.0997694685 5.36326104e-05 0)
(0.0997627508 5.23045345e-05 0)
(0.0997562647 5.0949787e-05 0)
(0.0997500106 4.95718985e-05 0)
(0.0997439887 4.81739996e-05 0)
(0.0997381993 4.67587971e-05 0)
(0.0997326425 4.53285428e-05 0)
(0.0997273191 4.38850452e-05 0)
(0.0997222274 4.24294555e-05 0)
(0.0997173747 4.09629338e-05 0)
(0.0997127378 3.9483249e-05 0)
(0.0997083987 3.7999953e-05 0)
(0.0997040856 3.64610823e-05 0)
(0.0997007995 3.51074892e-05 0)
(0.0996953804 3.27482117e-05 0)
(0.0999981284 4.93564448e-05 0)
(0.0999825835 0.0001434804 0)
(0.0999509053 0.000223916605 0)
(0.0999048154 0.000284423679 0)
(0.0998490103 0.000319800812 0)
(0.0997884362 0.000328318855 0)
(0.0997274217 0.000312106122 0)
(0.0996697751 0.000274825235 0)
(0.0996189658 0.000219603906 0)
(0.09957811 0.00014943994 0)
(0.099549724 6.93723679e-05 0)
(0.0995351522 -1.19755076e-05 0)
(0.099533998 -8.20194986e-05 0)
(0.0995439823 -0.000127236011 0)
(0.0995608771 -0.000138026157 0)
(0.09957896 -0.000110735446 0)
(0.0995922333 -4.84897217e-05 0)
(0.0995953779 3.96087128e-05 0)
(0.0995844763 0.000141061901 0)
(0.0995577781 0.000243098684 0)
(0.0995159089 0.000334406443 0)
(0.0994613354 0.000406416615 0)
(0.0993976441 0.000453854955 0)
(0.099328986 0.000474602223 0)
(0.099259651 0.00046913858 0)
(0.0991937332 0.000439929238 0)
(0.0991348776 0.000391030849 0)
(0.0990860691 0.000328017846 0)
(0.0990493925 0.000258120996 0)
(0.0990257352 0.000190261192 0)
(0.0990144812 0.000134570387 0)
(0.09901333 0.000101147705 0)
(0.0990183902 9.81624361e-05 0)
(0.0990245885 0.000129787925 0)
(0.0990263403 0.000194698558 0)
(0.0990184736 0.000285827809 0)
(0.0989972342 0.000391655266 0)
(0.0989610009 0.000498772572 0)
(0.0989104536 0.000595024669 0)
(0.0988481593 0.000672256225 0)
(0.0987777228 0.000727776856 0)
(0.0987027802 0.000764110532 0)
(0.0986261538 0.000787242354 0)
(0.0985494052 0.000804133276 0)
(0.098472853 0.000820478125 0)
(0.098395946 0.000839447919 0)
(0.0983177745 0.00086163095 0)
(0.0982375056 0.000885858289 0)
(0.0981546207 0.000910323589 0)
(0.0980689457 0.000933463989 0)
(0.097980553 0.000954348485 0)
(0.0978896309 0.000972623723 0)
(0.0977963921 0.000988239661 0)
(0.0977010404 0.00100118034 0)
(0.0976037811 0.00101132066 0)
(0.0975048471 0.00101841377 0)
(0.097404519 0.00102214899 0)
(0.097303132 0.00102221649 0)
(0.0972010724 0.00101834524 0)
(0.097098769 0.00101031245 0)
(0.0969966852 0.000997938065 0)
(0.0968953128 0.00098107777 0)
(0.096795166 0.000959620393 0)
(0.096696777 0.000933489322 0)
(0.0966006905 0.000902645093 0)
(0.0965074598 0.000867086885 0)
(0.096417642 0.00082685207 0)
(0.0963317955 0.000782014046 0)
(0.0962504765 0.000732678962 0)
(0.0961742357 0.00067898202 0)
(0.0961036144 0.000621084056 0)
(0.096039141 0.000559168862 0)
(0.0959813281 0.000493441362 0)
(0.0959306699 0.000424126555 0)
(0.0958876429 0.000351469679 0)
(0.0958527037 0.000275736247 0)
(0.0958262802 0.000197210397 0)
(0.0958087848 0.000116185336 0)
(0.0958006995 3.29754766e-05 0)
(0.0958024288 -5.18585802e-05 0)
(0.0958142221 -0.000137862874 0)
(0.0958363522 -0.000224648771 0)
(0.0958690571 -0.000311737854 0)
(0.0959124848 -0.000398590856 0)
(0.0959667048 -0.000484633981 0)
(0.0960316991 -0.000569257322 0)
(0.0961073498 -0.000651813458 0)
(0.0961934323 -0.000731628213 0)
(0.0962896084 -0.000808015443 0)
(0.0963954215 -0.000880291544 0)
(0.0965102974 -0.000947791351 0)
(0.0966335479 -0.00100988514 0)
(0.0967643781 -0.0010659953 0)
(0.0969018968 -0.00111561218 0)
(0.0970451302 -0.00115830864 0)
(0.0971930379 -0.00119375277 0)
(0.0973445309 -0.00122171786 0)
(0.0974984919 -0.00124208898 0)
(0.0976537966 -0.00125486556 0)
(0.0978093345 -0.00126015997 0)
(0.0979640297 -0.00125819221 0)
(0.0981168602 -0.00124928123 0)
(0.0982668739 -0.0012338335 0)
(0.0984132027 -0.00121232953 0)
(0.0985550726 -0.00118530903 0)
(0.098691811 -0.00115335551 0)
(0.0988228502 -0.00111708086 0)
(0.0989477286 -0.00107711046 0)
(0.0990660882 -0.00103406949 0)
(0.0991776709 -0.000988570578 0)
(0.0992823117 -0.000941203197 0)
(0.0993799319 -0.000892524825 0)
(0.0994705299 -0.000843054001 0)
(0.0995541727 -0.000793265093 0)
(0.0996309868 -0.000743584766 0)
(0.0997011491 -0.000694390028 0)
(0.0997648792 -0.00064600781 0)
(0.0998224317 -0.000598716297 0)
(0.099874089 -0.00055274806 0)
(0.0999201539 -0.000508293732 0)
(0.0999609421 -0.000465505402 0)
(0.0999967761 -0.000424499804 0)
(0.10002798 -0.000385361523 0)
(0.100054875 -0.000348146296 0)
(0.100077776 -0.000312884415 0)
(0.10009699 -0.000279584129 0)
(0.100112812 -0.00024823494 0)
(0.100125525 -0.000218810406 0)
(0.100135397 -0.000191270237 0)
(0.10014268 -0.000165562384 0)
(0.100147614 -0.000141625213 0)
(0.100150423 -0.000119389671 0)
(0.10015132 -9.87813594e-05 0)
(0.100150504 -7.9722317e-05 0)
(0.100148158 -6.21319229e-05 0)
(0.100144451 -4.59259025e-05 0)
(0.100139548 -3.10134989e-05 0)
(0.100133621 -1.73102337e-05 0)
(0.100126909 -4.81347816e-06 0)
(0.100119494 6.51546851e-06 0)
(0.100111367 1.67289794e-05 0)
(0.100102631 2.5886405e-05 0)
(0.100093368 3.40321412e-05 0)
(0.10008364 4.12442502e-05 0)
(0.100073514 4.76086057e-05 0)
(0.100063049 5.32150531e-05 0)
(0.100052307 5.8148563e-05 0)
(0.100041341 6.24803572e-05 0)
(0.100030196 6.62687965e-05 0)
(0.100018915 6.95634606e-05 0)
(0.100007547 7.24064191e-05 0)
(0.099996139 7.48323366e-05 0)
(0.0999847363 7.68701672e-05 0)
(0.0999733782 7.85457587e-05 0)
(0.0999620984 7.98838327e-05 0)
(0.0999509242 8.09086676e-05 0)
(0.0999398776 8.16441882e-05 0)
(0.0999289759 8.21141006e-05 0)
(0.0999182336 8.23415878e-05 0)
(0.0999076631 8.23488133e-05 0)
(0.0998972751 8.21565985e-05 0)
(0.0998870786 8.17842435e-05 0)
(0.0998770815 8.12494462e-05 0)
(0.0998672908 8.05683437e-05 0)
(0.0998577129 7.97556096e-05 0)
(0.0998483531 7.88245447e-05 0)
(0.0998392163 7.77871711e-05 0)
(0.0998303066 7.66543388e-05 0)
(0.0998216274 7.54358348e-05 0)
(0.0998131818 7.41404887e-05 0)
(0.0998049719 7.27762742e-05 0)
(0.0997969997 7.13504096e-05 0)
(0.0997892662 6.98694529e-05 0)
(0.0997817724 6.83393841e-05 0)
(0.0997745187 6.67656742e-05 0)
(0.0997675051 6.51533373e-05 0)
(0.0997607314 6.35069591e-05 0)
(0.0997541972 6.18307035e-05 0)
(0.0997479018 6.01283093e-05 0)
(0.0997418447 5.84030865e-05 0)
(0.0997360252 5.66579149e-05 0)
(0.0997304424 5.48952193e-05 0)
(0.0997250964 5.31169969e-05 0)
(0.0997199845 5.1324584e-05 0)
(0.0997151132 4.95194838e-05 0)
(0.0997104576 4.76994571e-05 0)
(0.099706101 4.58765539e-05 0)
(0.0997017567 4.39905235e-05 0)
(0.099698452 4.23316817e-05 0)
(0.0996928689 3.9471749e-05 0)
(0.0999980996 5.91055522e-05 0)
(0.0999823904 0.000171951766 0)
(0.0999504541 0.000268516179 0)
(0.0999040741 0.000341597748 0)
(0.0998480168 0.000385298851 0)
(0.0997872229 0.000397631137 0)
(0.0997259527 0.000380933488 0)
(0.0996679621 0.000339295197 0)
(0.0996167122 0.000276249476 0)
(0.0995753116 0.000195246286 0)
(0.0995461664 0.000102169756 0)
(0.0995306906 7.32992027e-06 0)
(0.0995291347 -7.48875778e-05 0)
(0.0995391706 -0.000129840264 0)
(0.0995560741 -0.000146016821 0)
(0.0995742355 -0.000118697994 0)
(0.0995876328 -5.11176212e-05 0)
(0.099591 4.67184958e-05 0)
(0.0995808194 0.000160801081 0)
(0.0995555089 0.000276265195 0)
(0.0995154001 0.000379897974 0)
(0.0994625927 0.000461673305 0)
(0.0994004671 0.000515380097 0)
(0.0993330901 0.000538452078 0)
(0.0992647198 0.000531314001 0)
(0.099199454 0.000496652031 0)
(0.0991409822 0.000438946133 0)
(0.0990923794 0.000364407107 0)
(0.0990558682 0.000281187486 0)
(0.0990325112 0.000199475635 0)
(0.0990218805 0.000130988542 0)
(0.099021823 8.75580367e-05 0)
(0.0990284537 7.89169705e-05 0)
(0.0990365373 0.000110270093 0)
(0.0990403299 0.000180491213 0)
(0.0990346125 0.00028169936 0)
(0.0990155971 0.00040062859 0)
(0.098981557 0.000521578141 0)
(0.0989330174 0.000630126638 0)
(0.0988724054 0.000716456442 0)
(0.0988032454 0.000777203162 0)
(0.0987291647 0.000815259804 0)
(0.0986530294 0.000837744174 0)
(0.0985764633 0.000853032277 0)
(0.0984998353 0.000868036649 0)
(0.0984226151 0.000886647137 0)
(0.0983438853 0.000909621193 0)
(0.0982627876 0.000935562485 0)
(0.0981787732 0.000962277432 0)
(0.0980916423 0.000987855776 0)
(0.0980014496 0.00101115591 0)
(0.0979083743 0.00103174725 0)
(0.0978126255 0.00104957757 0)
(0.0977144089 0.00106464178 0)
(0.0976139364 0.0010768029 0)
(0.0975114529 0.00108577368 0)
(0.0974072569 0.00109118634 0)
(0.0973017075 0.00109267184 0)
(0.0971952206 0.00108990712 0)
(0.0970882602 0.00108262715 0)
(0.0969813296 0.00107061837 0)
(0.0968749645 0.00105370976 0)
(0.0967697272 0.00103176896 0)
(0.0966662 0.00100470283 0)
(0.0965649793 0.000972459314 0)
(0.0964666675 0.000935028051 0)
(0.096371866 0.000892439272 0)
(0.0962811678 0.000844761714 0)
(0.0961951526 0.000792100262 0)
(0.0961143854 0.000734593495 0)
(0.0960394161 0.000672411058 0)
(0.0959707825 0.000605750735 0)
(0.0959090117 0.000534835348 0)
(0.0958546207 0.000459910468 0)
(0.0958081148 0.000381243432 0)
(0.095769984 0.000299123941 0)
(0.095740702 0.000213870194 0)
(0.0957207194 0.000125839396 0)
(0.0957104405 3.54136834e-05 0)
(0.0957102638 -5.70694694e-05 0)
(0.0957206132 -0.000151172914 0)
(0.0957418509 -0.000246407984 0)
(0.0957742489 -0.000342248414 0)
(0.0958180032 -0.000438104342 0)
(0.0958732309 -0.000533325866 0)
(0.0959399553 -0.000627211166 0)
(0.0960180916 -0.000719012286 0)
(0.096107438 -0.000807944843 0)
(0.0962076675 -0.000893201538 0)
(0.0963183207 -0.000973968385 0)
(0.0964388029 -0.00104944428 0)
(0.0965683847 -0.00111886331 0)
(0.0967062084 -0.00118151816 0)
(0.0968512976 -0.00123678275 0)
(0.0970025734 -0.0012841326 0)
(0.0971588735 -0.00132316154 0)
(0.0973189758 -0.00135359396 0)
(0.0974816238 -0.0013752922 0)
(0.0976455531 -0.00138825892 0)
(0.0978095178 -0.00139263465 0)
(0.0979723161 -0.00138869064 0)
(0.0981328122 -0.00137681768 0)
(0.0982899565 -0.00135751138 0)
(0.0984428012 -0.00133135497 0)
(0.0985905115 -0.00129900039 0)
(0.0987323737 -0.00126114878 0)
(0.0988677978 -0.00121853113 0)
(0.0989963178 -0.00117188994 0)
(0.0991175871 -0.0011219624 0)
(0.099231373 -0.00106946573 0)
(0.0993375478 -0.00101508461 0)
(0.0994360788 -0.000959461227 0)
(0.0995270178 -0.000903187628 0)
(0.0996104895 -0.000846800349 0)
(0.0996866806 -0.000790777224 0)
(0.0997558291 -0.000735536125 0)
(0.0998182146 -0.000681435436 0)
(0.0998741484 -0.000628776186 0)
(0.0999239657 -0.000577805547 0)
(0.0999680173 -0.000528721062 0)
(0.100006663 -0.000481675082 0)
(0.100040263 -0.000436779159 0)
(0.100069176 -0.000394108328 0)
(0.100093753 -0.000353705284 0)
(0.100114335 -0.000315584369 0)
(0.100131249 -0.000279735356 0)
(0.100144807 -0.000246127032 0)
(0.100155308 -0.000214710711 0)
(0.100163036 -0.000185423677 0)
(0.100168258 -0.000158192576 0)
(0.100171226 -0.000132936595 0)
(0.100172178 -0.000109570142 0)
(0.10017133 -8.80049702e-05 0)
(0.100168888 -6.81520629e-05 0)
(0.100165043 -4.99237293e-05 0)
(0.100159971 -3.32360051e-05 0)
(0.100153825 -1.8005656e-05 0)
(0.100146642 -4.12310189e-06 0)
(0.100138519 8.56219697e-06 0)
(0.100129727 1.99984181e-05 0)
(0.100120427 3.02629118e-05 0)
(0.100110643 3.94335009e-05 0)
(0.100100417 4.75847146e-05 0)
(0.100089801 5.47954781e-05 0)
(0.100078849 6.11403347e-05 0)
(0.100067614 6.66912919e-05 0)
(0.10005615 7.15159312e-05 0)
(0.100044519 7.56754953e-05 0)
(0.100032785 7.92281258e-05 0)
(0.100021004 8.2230821e-05 0)
(0.100009217 8.47377633e-05 0)
(0.0999974559 8.67984749e-05 0)