/*--------------------------------*- C++ -*----------------------------------*\
| =========                 |                                                 |
| \\      /  F ield         | OpenFOAM: The Open Source CFD Toolbox           |
|  \\    /   O peration     | Version:  v2012                                 |
|   \\  /    A nd           | Website:  www.openfoam.com                      |
|    \\/     M anipulation  |                                                 |
\*---------------------------------------------------------------------------*/
FoamFile
{
    version     2.0;
    format      ascii;
    class       volScalarField;
    location    "2.29";
    object      p;
}
// * * * * * * * * * * * * * * * * * * * * * * * * * * * * * * * * * * * * * //

dimensions      [0 2 -2 0 0 0 0];


internalField   nonuniform List<scalar> 
28416
(
0.000156139104
0.000157920066
0.000161769381
0.000167521135
0.000174964712
0.000184053305
0.000194822569
0.000207292746
0.000221454476
0.000237301413
0.000254970622
0.000274083849
0.000294218345
0.000315680823
0.000338501486
0.000362687487
0.000388140807
0.000414715575
0.000442189858
0.000471083833
0.000501287873
0.000532571376
0.000564840181
0.000598029213
0.000632036062
0.000666743706
0.000702035765
0.000737794185
0.000773899734
0.00081023441
0.000846680834
0.000883118817
0.000919419615
0.000955437774
0.000990991256
0.00102592369
0.00106009431
0.001093354
0.00112554912
0.0011565301
0.00118615563
0.00121429438
0.00124082537
0.00126563747
0.00128862861
0.00130970527
0.00132878278
0.00134578607
0.00136065085
0.00137332467
0.00138376783
0.00139195378
0.00139786935
0.00140151465
0.00140290296
0.00140206035
0.00139902531
0.00139384823
0.00138659071
0.00137732479
0.00136613208
0.00135310274
0.00133833448
0.00132193139
0.00130400283
0.00128466226
0.001264026
0.00124221208
0.00121933907
0.00119552494
0.00117088599
0.00114553596
0.00111958515
0.00109313964
0.0010663002
0.00103916087
0.00101180859
0.000984331389
0.000956811996
0.000929267964
0.000901787272
0.000874386451
0.000847143629
0.000820106708
0.000793297231
0.00076673888
0.000740453449
0.000714455565
0.000688755066
0.000663358664
0.000638270068
0.00061349052
0.000589019629
0.000564856098
0.000540998314
0.00051744494
0.000494195438
0.000471250487
0.000448612313
0.000426284922
0.000404274221
0.00038258805
0.000361236129
0.000340229914
0.00031958239
0.00029930782
0.000279421451
0.000259939206
0.000240877378
0.00022225233
0.000204080232
0.000186376853
0.000169157439
0.000152436713
0.000136229141
0.000120549631
0.000105414949
9.08368666e-05
7.68187904e-05
6.33602853e-05
5.04595651e-05
3.81140195e-05
2.63202996e-05
1.50744392e-05
4.37210477e-06
-5.79089328e-06
-1.54175695e-05
-2.45119552e-05
-3.30804219e-05
-4.11311816e-05
-4.86739787e-05
-5.57199603e-05
-6.22816372e-05
-6.83728824e-05
-7.40088722e-05
-7.92057565e-05
-8.39797653e-05
-8.83481736e-05
-9.2335133e-05
-9.59794319e-05
-9.93372963e-05
-0.0001024852
-0.000105419866
-0.000107951795
-0.000110103021
-0.000111911108
-0.000113402238
-0.000114594345
-0.000115499018
-0.000116125042
-0.00011648129
-0.000116576815
-0.00011642015
-0.000116019322
-0.000115382264
-0.000114517078
-0.000113432004
-0.000112135318
-0.000110635264
-0.000108940027
-0.000107057687
-0.000104996175
-0.000102763256
-0.00010036652
-9.78133772e-05
-9.51110628e-05
-9.22666434e-05
-8.92870268e-05
-8.61789722e-05
-8.29491027e-05
-7.96039144e-05
-7.61497875e-05
-7.25929978e-05
-6.89397227e-05
-6.51960498e-05
-6.13679849e-05
-5.74614561e-05
-5.34823203e-05
-4.94363699e-05
-4.53293378e-05
-4.11669035e-05
-3.69547112e-05
-3.26983682e-05
-2.84035273e-05
-2.40756968e-05
-1.97210518e-05
-1.53439319e-05
-1.09563117e-05
-6.54830188e-06
-2.20695119e-06
0.000148709861
0.000150103325
0.000153562517
0.000159092264
0.000166430961
0.00017546528
0.000186209463
0.00019867531
0.000212839152
0.000228680395
0.000246177754
0.000264682386
0.000285106874
0.000306921498
0.000330081639
0.000354547169
0.000380318227
0.000407433213
0.000435876573
0.00046540226
0.000496053412
0.000527790459
0.000560508287
0.000594115845
0.000628523043
0.000663628696
0.000699325827
0.000735503172
0.00077204399
0.000808826065
0.000845721376
0.000882595081
0.000919304551
0.000955697981
0.000991616008
0.00102690585
0.00106141971
0.00109500925
0.00112752568
0.00115882305
0.00118876082
0.00121720545
0.00124403129
0.00126912127
0.00129236731
0.00131367094
0.00133294392
0.00135010904
0.00136510086
0.00137786648
0.00138836604
0.00139657321
0.00140247533
0.00140607351
0.00140738244
0.00140643008
0.00140325729
0.00139791715
0.00139047426
0.00138100392
0.00136959114
0.00135632961
0.00134132056
0.00132467158
0.00130649543
0.00128690875
0.0012660309
0.00124398267
0.00122088516
0.00119685867
0.00117202162
0.00114648963
0.00112037453
0.0010937835
0.00106681831
0.00103957531
0.00101214532
0.000984604343
0.000957012137
0.000929456503
0.000901966325
0.000874616185
0.000847438963
0.000820476332
0.000793760539
0.00076731349
0.000741152331
0.000715288791
0.000689729506
0.000664477316
0.000639531961
0.000614890751
0.000590549441
0.000566503063
0.000542746656
0.000519275962
0.000496088042
0.000473181766
0.000450558196
0.000428220848
0.000406175799
0.000384431694
0.000362999635
0.00034189296
0.00032112695
0.000300718482
0.000280685634
0.000261047285
0.000241822715
0.000223031227
0.000204691811
0.000186822868
0.000169442011
0.000152565931
0.000136210348
0.000120389911
0.000105117675
9.04031782e-05
7.62517933e-05
6.26658531e-05
4.96457413e-05
3.71903775e-05
2.52974278e-05
1.3963458e-05
3.18403488e-06
-7.04638793e-06
-1.67352603e-05
-2.58904508e-05
-3.45198982e-05
-4.26325425e-05
-5.02386188e-05
-5.73496528e-05
-6.39783958e-05
-7.01388205e-05
-7.5846513e-05
-8.11205968e-05
-8.59851893e-05
-9.04642153e-05
-9.45749234e-05
-9.83205061e-05
-0.000101664248
-0.000104645674
-0.000107358508
-0.000109764818
-0.000111844205
-0.000113598169
-0.00011503764
-0.000116175318
-0.000117022454
-0.000117589084
-0.000117884892
-0.000117919582
-0.000117702689
-0.000117243293
-0.00011655005
-0.000115631373
-0.000114495519
-0.000113150608
-0.000111604649
-0.000109865561
-0.000107941162
-0.000105839155
-0.000103567113
-0.000101132475
-9.85425385e-05
-9.58044588e-05
-9.29252449e-05
-8.99117618e-05
-8.67707369e-05
-8.35087668e-05
-8.01323231e-05
-7.66477595e-05
-7.30613205e-05
-6.93791474e-05
-6.56072862e-05
-6.17516964e-05
-5.78182555e-05
-5.38127685e-05
-4.97409769e-05
-4.56085667e-05
-4.14211739e-05
-3.71843997e-05
-3.29038032e-05
-2.85849773e-05
-2.42333354e-05
-1.985491e-05
-1.54536716e-05
-1.10410447e-05
-6.60477729e-06
-2.23069274e-06
0.000140609216
0.000142192253
0.000145802
0.000151401534
0.000158780124
0.00016785213
0.000178636558
0.000191149199
0.00020537188
0.000221272933
0.000238810622
0.000257920978
0.000278186176
0.00030001644
0.000323352852
0.000348138059
0.000374305567
0.000401723356
0.000430296693
0.000460110517
0.000491113569
0.000523224927
0.000556353442
0.00059040614
0.000625285403
0.000660885034
0.000697092571
0.000733790985
0.00077085908
0.000808172159
0.000845601953
0.000883014978
0.000920269712
0.00095721703
0.000993703807
0.00102957422
0.00106467144
0.00109883926
0.00113192289
0.00116377085
0.00119423737
0.00122318415
0.00125048141
0.00127600829
0.0012996532
0.00132131427
0.00134090002
0.00135833025
0.001373537
0.00138646539
0.00139707428
0.00140533676
0.00141124031
0.0014147868
0.00141599236
0.00141488697
0.00141151403
0.0014059297
0.00139820213
0.00138841053
0.00137664415
0.00136300116
0.00134758746
0.0013305154
0.00131190255
0.00129187033
0.00127054279
0.00124804523
0.00122450305
0.00120004044
0.00117477929
0.00114883813
0.00112233124
0.00109536779
0.00106805112
0.00104047792
0.00101273709
0.000984912018
0.000957078853
0.000929284339
0.000901610221
0.000874092863
0.000846780604
0.000819711074
0.00079291148
0.000766402541
0.000740199552
0.000714311868
0.000688743463
0.000663494181
0.000638560613
0.000613936897
0.000589615666
0.000565588983
0.000541849178
0.000518389624
0.000495205416
0.000472293913
0.000449655153
0.000427292117
0.000405210824
0.000383420309
0.000361932456
0.000340761721
0.000319924765
0.000299440034
0.000279327286
0.000259607121
0.00024030051
0.000221428361
0.000203011116
0.000185068425
0.000167618868
0.000150679729
0.0001342668
0.000118394155
0.000103073783
8.83150026e-05
7.41240985e-05
6.0504473e-05
4.74571767e-05
3.4981359e-05
2.30745608e-05
1.17329146e-05
9.5128369e-07
-9.27666663e-06
-1.89584085e-05
-2.81020997e-05
-3.6716549e-05
-4.48115371e-05
-5.23979707e-05
-5.94878899e-05
-6.6094437e-05
-7.22317806e-05
-7.79147755e-05
-8.31573262e-05
-8.79711477e-05
-9.23696337e-05
-9.63694455e-05
-9.99954411e-05
-0.000103322956
-0.000106313304
-0.000108981989
-0.000111325692
-0.000113343136
-0.000115040213
-0.0001164274
-0.000117516874
-0.000118319711
-0.000118845279
-0.00011910216
-0.000119098918
-0.000118844185
-0.000118346538
-0.000117614492
-0.000116656557
-0.000115481219
-0.000114096885
-0.000112511845
-0.000110734247
-0.000108772084
-0.000106633173
-0.000104325148
-0.000101855459
-9.92313794e-05
-9.64600232e-05
-9.35483497e-05
-9.05031717e-05
-8.7331163e-05
-8.40388684e-05
-8.06327108e-05
-7.71190004e-05
-7.35039439e-05
-6.97936493e-05
-6.59941342e-05
-6.21113325e-05
-5.81510988e-05
-5.41192147e-05
-5.00213942e-05
-4.58632885e-05
-4.16504914e-05
-3.73885539e-05
-3.30829738e-05
-2.87392668e-05
-2.43627491e-05
-1.99593226e-05
-1.55328533e-05
-1.10947336e-05
-6.63366282e-06
-2.2373513e-06
0.000129597014
0.000131077186
0.000134580779
0.000140116779
0.000147480942
0.000156578062
0.000167415092
0.000179999475
0.000194306794
0.000210301162
0.000227956677
0.000247306751
0.000267947357
0.00029014585
0.000313827142
0.000338934775
0.000365403913
0.000393203521
0.000422316739
0.000452684323
0.00048423651
0.000516893571
0.000550575104
0.000585195015
0.000620658155
0.000656860871
0.000693693246
0.000731040157
0.00076878074
0.00080678745
0.000844925307
0.000883052218
0.000921021957
0.000958684829
0.000995882871
0.00103245552
0.00106824365
0.00110308858
0.00113683267
0.0011693213
0.00120040487
0.00122994031
0.00125779223
0.00128383377
0.00130794737
0.00133002566
0.00134997239
0.00136770353
0.00138314821
0.00139624954
0.00140696524
0.00141526805
0.00142114594
0.00142460212
0.00142565483
0.00142433703
0.00142069579
0.00141479166
0.00140669771
0.00139649859
0.00138428937
0.00137017431
0.00135426554
0.00133668171
0.00131754654
0.00129698746
0.00127513418
0.00125211736
0.00122806736
0.00120311305
0.00117738075
0.00115099311
0.00112406819
0.00109671846
0.00106904996
0.0010411616
0.00101314462
0.000985081202
0.00095704373
0.000929103749
0.000901309703
0.000873716391
0.000846364705
0.000819288223
0.00079251256
0.000766055473
0.000739928003
0.000714135064
0.000688676105
0.000663546116
0.000638736614
0.000614236633
0.000590033803
0.000566115431
0.000542469493
0.000519085565
0.00049595562
0.00047307466
0.000450441195
0.000428057521
0.000405929803
0.000384067994
0.000362485589
0.00034119924
0.000320228271
0.000299594122
0.000279319754
0.000259429051
0.000239946236
0.000220895328
0.000202299655
0.000184181442
0.000166561464
0.000149458755
0.000132890365
0.000116871136
0.000101413447
8.65269513e-05
7.22184225e-05
5.8491834e-05
4.5348672e-05
3.27882793e-05
2.08081364e-05
9.40408435e-06
-1.42948862e-06
-1.16994889e-05
-2.1413977e-05
-3.05819901e-05
-3.92134705e-05
-4.73193053e-05
-5.49113584e-05
-6.20024329e-05
-6.86061539e-05
-7.47367358e-05
-8.04086189e-05
-8.56362306e-05
-9.04355036e-05
-9.48300763e-05
-9.88565899e-05
-0.000102505902
-0.000105795957
-0.000108731803
-0.000111327681
-0.000113592363
-0.000115532782
-0.000117156622
-0.000118472686
-0.000119490673
-0.000120220518
-0.000120672259
-0.000120855966
-0.000120781416
-0.000120457916
-0.000119894357
-0.00011909932
-0.000118081172
-0.000116848125
-0.00011540826
-0.000113769574
-0.000111939968
-0.000109927215
-0.000107738954
-0.000105382693
-0.000102865804
-0.00010019552
-9.73789258e-05
-9.44229601e-05
-9.13344182e-05
-8.81199582e-05
-8.47861075e-05
-8.13392675e-05
-7.77857205e-05
-7.4131638e-05
-7.0383086e-05
-6.65460332e-05
-6.26263599e-05
-5.86298625e-05
-5.45622616e-05
-5.04292092e-05
-4.62362961e-05
-4.1989056e-05
-3.76929776e-05
-3.33534909e-05
-2.89760357e-05
-2.45658332e-05
-2.01286861e-05
-1.56682371e-05
-1.11956817e-05
-6.69809045e-06
-2.26276218e-06
0.000116163527
0.000117663046
0.000121198051
0.000126776322
0.000134191316
0.000143348558
0.000154258401
0.000166930721
0.000181339995
0.00019744302
0.000215181993
0.000234422716
0.000255521241
0.00027809184
0.000302165744
0.000327716133
0.000354698536
0.000383073547
0.000412779168
0.000443747754
0.000475928654
0.000509253845
0.000543639622
0.000578994551
0.000615221781
0.000652218342
0.000689874839
0.000728075387
0.000766697347
0.00080561135
0.000844681641
0.000883765811
0.000922711862
0.000961358203
0.000999544674
0.00103710931
0.00107388593
0.00110970794
0.00114441027
0.00117783079
0.00120981211
0.0012402033
0.00126886115
0.00129565108
0.00132044815
0.00134313806
0.00136361846
0.00138180005
0.0013976077
0.0014109813
0.00142187647
0.00143026497
0.00143613498
0.00143949103
0.00144035386
0.00143875995
0.00143476096
0.00142842286
0.00141982501
0.001409059
0.00139622738
0.0013814423
0.00136482408
0.00134649969
0.00132660128
0.00130526467
0.00128262785
0.00125882952
0.00123400767
0.00120829816
0.00118183348
0.00115474159
0.00112714495
0.00109915979
0.00107089535
0.00104245333
0.0010139272
0.000985401895
0.000956953157
0.000928646962
0.000900543183
0.000872689349
0.000845125811
0.000817884588
0.00079098856
0.000764452064
0.000738281912
0.000712478125
0.000687034741
0.000661940903
0.000637182049
0.000612741095
0.000588599695
0.000564739499
0.000541143331
0.000517796285
0.000494686652
0.000471806661
0.000449153006
0.000426727142
0.000404535333
0.0003825885
0.000360901865
0.000339494437
0.000318388369
0.00029760826
0.000277180398
0.000257132014
0.00023749058
0.00021828315
0.000199535782
0.000181273055
0.000163517671
0.000146290127
0.000129608471
0.000113488106
9.79416316e-05
8.29787393e-05
6.86061943e-05
5.48279346e-05
4.16453011e-05
2.90573178e-05
1.70609618e-05
5.65140399e-06
-5.17777671e-06
-1.54344103e-05
-2.5127585e-05
-3.42674964e-05
-4.28653205e-05
-5.09331216e-05
-5.84837766e-05
-6.55309228e-05
-7.20889687e-05
-7.81732287e-05
-8.38003052e-05
-8.89885268e-05
-9.3756076e-05
-9.81122754e-05
-0.000101984693
-0.000105521482
-0.000108713136
-0.000111559583
-0.000114065648
-0.000116239989
-0.000118091006
-0.000119627279
-0.000120857963
-0.000121792955
-0.000122442427
-0.000122816143
-0.000122923341
-0.000122773086
-0.000122374471
-0.000121736509
-0.000120868031
-0.000119777683
-0.000118473937
-0.00011696511
-0.000115259313
-0.000113364463
-0.000111288318
-0.000109038484
-0.000106622416
-0.000104047413
-0.000101320618
-9.84490218e-05
-9.54394658e-05
-9.2298652e-05
-8.90331477e-05
-8.56493941e-05
-8.21537123e-05
-7.85523116e-05
-7.4851298e-05
-7.10566782e-05
-6.71743665e-05
-6.3210191e-05
-5.9169897e-05
-5.50591537e-05
-5.088356e-05
-4.66486495e-05
-4.23598938e-05
-3.80227132e-05
-3.36424627e-05
-2.92244994e-05
-2.47739577e-05
-2.02965413e-05
-1.57958781e-05
-1.12832006e-05
-6.74688453e-06
-2.2754305e-06
0.000100280485
0.000101792753
0.000105351794
0.000110971042
0.000118450867
0.000127699949
0.000138729443
0.000151550079
0.000166138171
0.000182455055
0.000200463675
0.000220146393
0.000241506574
0.000264454185
0.000288949868
0.000314957576
0.000342441314
0.000371347935
0.000401631256
0.000433241847
0.000466112101
0.000500168145
0.000535328745
0.000571504977
0.0006086005
0.000646511388
0.00068512619
0.00072432603
0.000763984394
0.000803966673
0.000844129785
0.000884322681
0.000924390498
0.000964177496
0.00100351492
0.00104222937
0.00108014813
0.00111709712
0.00115290246
0.00118739306
0.00122040268
0.00125177158
0.00128134786
0.00130898847
0.0013345603
0.00135794132
0.00137902208
0.00139770706
0.00141391599
0.00142758492
0.00143866699
0.00144713289
0.00145297112
0.00145618797
0.00145680729
0.00145486997
0.00145043329
0.00144356999
0.00143436716
0.00142292496
0.00140935523
0.0013937799
0.0013763294
0.00135714099
0.00133635699
0.00131412306
0.00129058658
0.00126589498
0.00124019439
0.0012136283
0.0011863364
0.00115845346
0.00113010827
0.00110142265
0.00107251059
0.00104347747
0.00101441963
0.00098542434
0.000956568894
0.000927921839
0.000899535922
0.000871462045
0.000843737988
0.000816391047
0.000789439795
0.000762894085
0.000736755407
0.000711017716
0.000685668398
0.000660689426
0.000636058683
0.000611751376
0.000587741551
0.000564003606
0.000540513734
0.000517251254
0.000494199747
0.000471347933
0.000448690287
0.000426227354
0.000403965748
0.000381917895
0.000360101526
0.000338538977
0.000317256341
0.000296282555
0.000275648446
0.000255385792
0.000235526456
0.000216101588
0.000197140944
0.00017867232
0.000160721107
0.000143309947
0.000126458492
0.000110183257
9.449753e-05
7.94113642e-05
6.49316505e-05
5.10622595e-05
3.7804273e-05
2.51562567e-05
1.31145376e-05
1.67347095e-06
-9.17430156e-06
-1.94376078e-05
-2.91265246e-05
-3.82521769e-05
-4.68265875e-05
-5.48625847e-05
-6.23737205e-05
-6.93741433e-05
-7.58783455e-05
-8.19006354e-05
-8.74542081e-05
-9.25505886e-05
-9.72060929e-05
-0.000101473145
-0.000105389263
-0.000108893072
-0.00011201671
-0.000114780847
-0.000117198503
-0.000119280916
-0.000121038334
-0.000122480812
-0.000123618366
-0.000124461081
-0.000125019104
-0.000125302482
-0.000125321013
-0.000125084184
-0.000124601159
-0.000123880831
-0.000122931906
-0.000121762925
-0.000120382278
-0.000118798194
-0.000117018732
-0.000115051788
-0.000112905098
-0.000110586236
-0.000108102615
-0.000105461489
-0.000102669961
-9.97349819e-05
-9.66633622e-05
-9.34617703e-05
-9.01367407e-05
-8.6694679e-05
-8.31418653e-05
-7.94844608e-05
-7.57285152e-05
-7.18799717e-05
-6.79446754e-05
-6.39283821e-05
-5.98367634e-05
-5.56754145e-05
-5.14498609e-05
-4.71655631e-05
-4.28279199e-05
-3.84422782e-05
-3.40139181e-05
-2.95481208e-05
-2.50499376e-05
-2.05249981e-05
-1.59767605e-05
-1.14163105e-05
-6.83048821e-06
-2.30719507e-06
8.1922349e-05
8.34501115e-05
8.70457914e-05
9.27247677e-05
0.000100287588
0.000109643447
0.0001208054
0.000133786552
0.000148566509
0.000165112738
0.000183396842
0.000203394773
0.000225103072
0.000248465558
0.000273442916
0.000299995979
0.000328079057
0.000357648924
0.000388655786
0.000421042993
0.00045474367
0.000489682038
0.000525775399
0.000562933958
0.000601060636
0.000640050876
0.000679792509
0.000720165632
0.000761042399
0.000802286961
0.00084375553
0.0008852961
0.000926745572
0.00096792736
0.00100866852
0.00104879181
0.00108811381
0.00112645014
0.00116361697
0.00119943269
0.00123371994
0.00126630757
0.00129703204
0.00132573876
0.00135228345
0.00137653375
0.0013983709
0.00141769148
0.00143440884
0.0014484542
0.00145977758
0.00146834822
0.00147415494
0.00147720605
0.00147752914
0.00147517047
0.00147019423
0.00146268142
0.00145272859
0.00144044639
0.00142595788
0.00140939682
0.00139090581
0.00137063442
0.00134873731
0.00132537241
0.00130069917
0.0012748768
0.00124806259
0.00122041039
0.00119206905
0.00116318127
0.0011338825
0.00110430012
0.00107455289
0.00104475032
0.0010149923
0.00098536834
0.000955956813
0.000926824153
0.000898030875
0.000869621822
0.000841634155
0.000814092976
0.000787012697
0.000760397924
0.00073424377
0.000708536754
0.000683255994
0.000658374538
0.000633860894
0.000609680741
0.000585798739
0.000562180373
0.000538793713
0.00051561104
0.000492610235
0.00046977583
0.00044709973
0.000424581538
0.000402228483
0.000380055021
0.000358082122
0.00033633632
0.000314848601
0.000293653213
0.000272786457
0.000252285515
0.000232187382
0.000212527917
0.000193341038
0.000174658085
0.000156507336
0.000138913652
0.000121898269
0.000105478699
8.96687204e-05
7.44784548e-05
5.99145305e-05
4.59802917e-05
3.26760776e-05
1.99995303e-05
7.94591002e-06
-3.4915997e-06
-1.43216079e-05
-2.45542686e-05
-3.42010784e-05
-4.32746897e-05
-5.1788729e-05
-5.97576202e-05
-6.71964118e-05
-7.41206648e-05
-8.05464847e-05
-8.64908286e-05
-9.19721573e-05
-9.7008078e-05
-0.000101591755
-0.00010573478
-0.000109497936
-0.000112879104
-0.000115887671
-0.000118536522
-0.000120838194
-0.000122804448
-0.000124446291
-0.000125774409
-0.000126799267
-0.000127531139
-0.000127980128
-0.000128156195
-0.000128069148
-0.000127728589
-0.000127143847
-0.000126324021
-0.000125277972
-0.000124014324
-0.000122541481
-0.000120867649
-0.000119000848
-0.000116948914
-0.000114719505
-0.000112320113
-0.000109758064
-0.000107040525
-0.000104174505
-0.000101166861
-9.80243014e-05
-9.47533915e-05
-9.13605632e-05
-8.78521226e-05
-8.4234257e-05
-8.05130427e-05
-7.66944535e-05
-7.27843642e-05
-6.87885564e-05
-6.47127247e-05
-6.05624789e-05
-5.634335e-05
-5.20607956e-05
-4.77202048e-05
-4.33269009e-05
-3.8886152e-05
-3.44031567e-05
-2.98831119e-05
-2.53309869e-05
-2.07523255e-05
-1.61505777e-05
-1.1536867e-05
-6.89922832e-06
-2.32665891e-06
6.1063119e-05
6.26101474e-05
6.62518188e-05
7.20057375e-05
7.96726277e-05
8.91629248e-05
0.000100492421
0.000113677557
0.000128701314
0.000145534791
0.0001641549
0.000184544111
0.000206660817
0.000230484434
0.000255981197
0.000283112124
0.00031183746
0.000342112577
0.000373886936
0.000407099407
0.000441685257
0.000477574055
0.000514685738
0.000552930536
0.000592210669
0.000632420826
0.000673447712
0.000715169455
0.000757454873
0.000800162535
0.000843140149
0.000886224935
0.000929247149
0.000972037161
0.0010144063
0.0010561634
0.00109711576
0.00113706673
0.0011758189
0.00121317706
0.00124895028
0.0012829538
0.00131501076
0.00134495353
0.00137262531
0.00139788193
0.00142059388
0.00144064829
0.00145795067
0.00147242633
0.00148402134
0.00149270315
0.00149846085
0.00150130521
0.00150126828
0.00149840279
0.0014927812
0.00148449447
0.00147365056
0.00146037275
0.00144479778
0.00142707382
0.00140735842
0.00138581628
0.00136261716
0.00133793365
0.00131193914
0.00128480581
0.00125670295
0.00122779535
0.00119824197
0.00116819473
0.00113779749
0.00110718507
0.00107648252
0.00104580436
0.00101525407
0.000984924181
0.000954896585
0.000925239595
0.000896010458
0.0008672538
0.00083900397
0.000811281823
0.000784096727
0.000757447163
0.00073132087
0.000705695738
0.000680541092
0.000655819217
0.000631487163
0.000607498813
0.000583807111
0.000560366351
0.000537134385
0.000514074662
0.000491157953
0.000468363661
0.000445680662
0.000423107647
0.000400652945
0.000378333907
0.00035617591
0.000334211072
0.000312476769
0.000291014097
0.000269866321
0.000249077415
0.000228690756
0.000208747985
0.000189288077
0.000170346626
0.000151955334
0.000134141668
0.000116928696
0.000100335063
8.43750671e-05
6.90588356e-05
5.43925816e-05
4.03788971e-05
2.70170996e-05
1.43035933e-05
2.23222706e-06
-9.20535939e-06
-2.00194003e-05
-3.02216843e-05
-3.98252612e-05
-4.88441723e-05
-5.7293232e-05
-6.51878733e-05
-7.25440253e-05
-7.93779832e-05
-8.57061777e-05
-9.15446543e-05
-9.69090217e-05
-0.00010181839
-0.000106305893
-0.000110361063
-0.000114012493
-0.000117276116
-0.000120165651
-0.000122693919
-0.000124873713
-0.000126717372
-0.000128236586
-0.000129442634
-0.0001303465
-0.000130958939
-0.000131290491
-0.000131351386
-0.000131151473
-0.000130700253
-0.000130007001
-0.000129080801
-0.000127930512
-0.000126564765
-0.000124991983
-0.000123220378
-0.000121257964
-0.000119112554
-0.000116791771
-0.000114303059
-0.00011165369
-0.000108850769
-0.00010590124
-0.000102811901
-9.95894007e-05
-9.62402502e-05
-9.27708257e-05
-8.91873754e-05
-8.54960219e-05
-8.17027693e-05
-7.781351e-05
-7.38340302e-05
-6.97700185e-05
-6.56270743e-05
-6.14107132e-05
-5.71263744e-05
-5.27794274e-05
-4.83751763e-05
-4.39188619e-05
-3.94156721e-05
-3.48707263e-05
-3.02891442e-05
-2.56758173e-05
-2.10362221e-05
-1.63736827e-05
-1.16992022e-05
-6.99966069e-06
-2.36324621e-06
3.7671013e-05
3.9240617e-05
4.29358468e-05
4.8775925e-05
5.65602401e-05
6.61995305e-05
7.77122481e-05
9.11181286e-05
0.000106403263
0.000123541875
0.000142513881
0.000163301484
0.000185882787
0.000210230368
0.00023631125
0.000264091417
0.0002935323
0.000324589956
0.000357215019
0.000391355233
0.000426947109
0.00046391723
0.000502183979
0.000541658366
0.000582243507
0.000623833836
0.000666314509
0.00070956094
0.000753438466
0.000797802265
0.000842497375
0.000887358849
0.000932210825
0.000976849796
0.0010210947
0.00106474266
0.00110758491
0.00114941029
0.00119000673
0.00122916344
0.00126667325
0.00130233499
0.00133595528
0.00136735027
0.00139634746
0.00142278799
0.00144652905
0.00146744624
0.00148543566
0.00150041549
0.00151232709
0.00152113571
0.00152683083
0.00152942608
0.00152895892
0.00152548981
0.00151910118
0.00150989591
0.00149799566
0.00148353881
0.00146667832
0.00144757938
0.00142641697
0.00140337338
0.00137863579
0.0013523939
0.00132483765
0.00129615511
0.00126653051
0.00123614244
0.00120516227
0.00117375278
0.00114206709
0.00111024779
0.00107842633
0.00104672253
0.00101524426
0.000984087079
0.000953333388
0.000923053834
0.000893308695
0.00086413868
0.000835574416
0.000807634232
0.000780322555
0.000753630858
0.000727538299
0.000702012547
0.000677011185
0.000652483483
0.000628372534
0.000604617759
0.00058115767
0.000557932738
0.000534888192
0.000511976606
0.000489160083
0.000466411887
0.000443717458
0.000421074754
0.000398493915
0.000375996355
0.000353613371
0.000331384393
0.000309355027
0.000287575037
0.000266096378
0.000244971369
0.000224251095
0.000203984061
0.000184215123
0.000164984706
0.000146328284
0.000128276075
0.000110852953
9.40785237e-05
7.7967315e-05
6.25290765e-05
4.77691528e-05
3.36888885e-05
2.02860721e-05
7.55538553e-06
-4.51115888e-06
-1.59238037e-05
-2.66946634e-05
-3.68373888e-05
-4.63668895e-05
-5.52990853e-05
-6.36506813e-05
-7.14389601e-05
-7.86815833e-05
-8.53964487e-05
-9.16016969e-05
-9.73160756e-05
-0.000102558695
-0.000107334613
-0.000111674289
-0.000115592216
-0.000119103588
-0.000122223904
-0.000124968781
-0.000127352093
-0.000129387133
-0.000131086737
-0.000132463153
-0.000133528124
-0.000134292956
-0.000134768534
-0.000134965379
-0.00013489375
-0.000134563707
-0.000133985052
-0.000133167258
-0.000132119471
-0.000130850553
-0.000129369111
-0.00012768352
-0.000125801927
-0.000123732271
-0.000121482292
-0.000119059537
-0.000116471371
-0.00011372498
-0.00011082738
-0.000107785425
-0.000104605808
-0.000101295074
-9.78596217e-05
-9.43057151e-05
-9.06394925e-05
-8.68669733e-05
-8.29940661e-05
-7.90265771e-05
-7.49702134e-05
-7.0830589e-05
-6.66132305e-05
-6.23235792e-05
-5.79669972e-05
-5.35487727e-05
-4.9074125e-05
-4.4548207e-05
-3.99761166e-05
-3.53628827e-05
-3.07135343e-05
-2.60328752e-05
-2.13262913e-05
-1.65970627e-05
-1.18561678e-05
-7.09124525e-06
-2.391281e-06
1.17088212e-05
1.33033635e-05
1.7057758e-05
2.29929195e-05
3.09068117e-05
4.07106543e-05
5.24258916e-05
6.60757228e-05
8.16493695e-05
9.91241483e-05
0.000118482721
0.000139710634
0.000162788695
0.000187693553
0.000214397013
0.000242867834
0.000273071574
0.000304969477
0.000338519211
0.00037366342
0.000410340758
0.00044848186
0.00048800843
0.000528832745
0.000570857738
0.000613977195
0.000658075481
0.000703026851
0.000748694382
0.000794928756
0.00084156747
0.000888434642
0.000935343384
0.000982096529
0.00102848701
0.00107429653
0.0011193048
0.00116328278
0.00120599979
0.00124722637
0.00128673626
0.0013243089
0.0013597316
0.00139280147
0.00142332764
0.00145113391
0.00147606168
0.00149797275
0.00151675182
0.00153230838
0.00154457803
0.0015535233
0.00155913403
0.00156142727
0.00156044689
0.00155626261
0.00154896871
0.00153868235
0.00152554146
0.00150970245
0.00149133763
0.00147063251
0.001447783
0.00142299254
0.00139646925
0.00136842319
0.00133906371
0.00130859704
0.00127722409
0.00124513853
0.00121252524
0.00117955896
0.00114640323
0.00111320958
0.00108011697
0.00104725133
0.00101472526
0.000982637712
0.000951073482
0.000920102736
0.000889791293
0.000860173128
0.000831278298
0.000803121467
0.00077570095
0.000749000437
0.000722989304
0.000697623289
0.000672846018
0.000648591034
0.00062478432
0.000601347375
0.000578200693
0.000555267407
0.000532476903
0.000509768147
0.000487092509
0.000464415827
0.000441719644
0.000419001534
0.000396274525
0.000373565768
0.000350914584
0.000328370081
0.000305988552
0.000283830837
0.000261959811
0.000240438109
0.000219326189
0.000198680741
0.000178553492
0.000158990375
0.000140031026
0.000121708566
0.000104049628
8.70745729e-05
7.07978359e-05
5.52283835e-05
4.03702325e-05
2.62229896e-05
1.27824114e-05
4.09477701e-08
-1.20117473e-05
-2.3388343e-05
-3.41033931e-05
-4.41729348e-05
-5.36141341e-05
-6.24449668e-05
-7.06839525e-05
-7.83499503e-05
-8.54619823e-05
-9.20390546e-05
-9.80998469e-05
-0.000103662483
-0.000108746957
-0.000113377768
-0.000117564828
-0.000121326832
-0.000124681007
-0.000127643481
-0.000130229803
-0.000132454633
-0.000134331887
-0.00013587478
-0.000137095902
-0.000138007337
-0.000138620728
-0.00013894733
-0.000138998019
-0.000138783276
-0.000138313175
-0.000137597424
-0.000136645426
-0.000135466322
-0.000134068994
-0.000132462062
-0.000130653887
-0.000128652594
-0.000126466076
-0.000124102013
-0.000121567879
-0.000118870956
-0.00011601834
-0.000113016955
-0.00010987356
-0.000106594759
-0.000103187008
-9.96566244e-05
-9.60097887e-05
-9.22525561e-05
-8.83908577e-05
-8.44305075e-05
-8.03772099e-05
-7.6236565e-05
-7.20140765e-05
-6.77151603e-05
-6.33451497e-05
-5.8909302e-05
-5.44128057e-05
-4.98607844e-05
-4.52582992e-05
-4.06103589e-05
-3.59219058e-05
-3.11978841e-05
-2.64430142e-05
-2.1662606e-05
-1.68598377e-05
-1.20455857e-05
-7.20680171e-06
-2.43173254e-06
-1.68647317e-05
-1.52434097e-05
-1.14253932e-05
-5.38805473e-06
2.66477864e-06
1.26445137e-05
2.4575524e-05
3.8484589e-05
5.43642468e-05
7.21949959e-05
9.19630667e-05
0.000113658221
0.000137266691
0.000162768477
0.000190140095
0.000219355314
0.000250384008
0.000283190635
0.000317732398
0.00035396104
0.000391818603
0.000431238125
0.000472143083
0.000514447543
0.000558056231
0.00060286399
0.000648754822
0.000695600785
0.000743261041
0.000791581306
0.000840392979
0.000889511867
0.000938740796
0.000987877595
0.00103669217
0.00108495598
0.00113242593
0.00117885563
0.00122399423
0.00126758987
0.00130939348
0.00134916137