/*--------------------------------*- C++ -*----------------------------------*\
| =========                 |                                                 |
| \\      /  F ield         | OpenFOAM: The Open Source CFD Toolbox           |
|  \\    /   O peration     | Version:  v2012                                 |
|   \\  /    A nd           | Website:  www.openfoam.com                      |
|    \\/     M anipulation  |                                                 |
\*---------------------------------------------------------------------------*/
FoamFile
{
    version     2.0;
    format      ascii;
    class       surfaceScalarField;
    location    "2.29";
    object      phi;
}
// * * * * * * * * * * * * * * * * * * * * * * * * * * * * * * * * * * * * * //

dimensions      [0 3 -1 0 0 0 0];
oriented        oriented;


internalField   nonuniform List<scalar> 
56481
(
6.66594047e-07
1.50022819e-10
6.66415245e-07
4.16095329e-10
6.66151357e-07
6.43060384e-10
6.65826024e-07
8.11169134e-10
6.65465358e-07
9.03172759e-10
6.65095387e-07
9.13764466e-10
6.64739537e-07
8.50061091e-10
6.64418007e-07
7.23760644e-10
6.64148919e-07
5.44388471e-10
6.63950032e-07
3.19960284e-10
6.63830057e-07
5.87508909e-11
6.6374868e-07
-1.88049579e-10
6.63710204e-07
-3.96863148e-10
6.63705904e-07
-5.19943761e-10
6.637165e-07
-5.26463652e-10
6.63719244e-07
-4.07979229e-10
6.63696854e-07
-1.80748002e-10
6.63625436e-07
1.27922103e-10
6.63463095e-07
4.74948515e-10
6.63220395e-07
8.13012752e-10
6.62910278e-07
1.1156027e-09
6.62550808e-07
1.35592575e-09
6.62161883e-07
1.51668207e-09
6.61763258e-07
1.59088692e-09
6.61373639e-07
1.57974747e-09
6.61009939e-07
1.49143303e-09
6.60686589e-07
1.34028525e-09
6.60414577e-07
1.14630953e-09
6.602e-07
9.35008847e-10
6.60042321e-07
7.36818005e-10
6.59932944e-07
5.85042862e-10
6.59855081e-07
5.11675881e-10
6.59785866e-07
5.41442921e-10
6.59700489e-07
6.85558395e-10
6.59575047e-07
9.37229789e-10
6.59390435e-07
1.27174123e-09
6.59136902e-07
1.65148616e-09
6.58814907e-07
2.03399555e-09
6.58433738e-07
2.38150816e-09
6.58008171e-07
2.66910538e-09
6.57554244e-07
2.88873199e-09
6.57085431e-07
3.04801087e-09
6.5661029e-07
3.16471114e-09
6.56132042e-07
3.25928246e-09
6.55649755e-07
3.34832057e-09
6.55160371e-07
3.44102898e-09
6.54660647e-07
3.53916897e-09
6.54148396e-07
3.63949681e-09
6.53622867e-07
3.73696593e-09
6.53084478e-07
3.82719365e-09
6.52534293e-07
3.90752101e-09
6.51973585e-07
3.97684136e-09
6.51403617e-07
4.03483908e-09
6.50825636e-07
4.08126222e-09
6.50240968e-07
4.11555117e-09
6.49651119e-07
4.1368243e-09
6.49057829e-07
4.14404764e-09
6.48463075e-07
4.13621682e-09
6.47869049e-07
4.11246104e-09
6.47278129e-07
4.07206865e-09
6.46692854e-07
4.01447267e-09
6.46115899e-07
3.93923277e-09
6.45550058e-07
3.846028e-09
6.44998216e-07
3.73466204e-09
6.44463321e-07
3.60506922e-09
6.43948353e-07
3.45732259e-09
6.43456298e-07
3.29164025e-09
6.42990127e-07
3.10838241e-09
6.42552793e-07
2.90805786e-09
6.42147226e-07
2.69132118e-09
6.41776352e-07
2.45896089e-09
6.41443098e-07
2.21189028e-09
6.41150399e-07
1.95112456e-09
6.40901185e-07
1.67774595e-09
6.40698389e-07
1.39282426e-09
6.40545208e-07
1.09716179e-09
6.40443705e-07
7.9260669e-10
6.40394271e-07
4.80991248e-10
6.40395777e-07
1.6437233e-10
6.40455623e-07
-1.57856875e-10
6.40577006e-07
-4.81463201e-10
6.40760164e-07
-8.0634291e-10
6.41004838e-07
-1.1311462e-09
6.41310651e-07
-1.45393055e-09
6.41677053e-07
-1.77290691e-09
6.42103025e-07
-2.08606629e-09
6.42587013e-07
-2.39122247e-09
6.43126933e-07
-2.68613533e-09
6.43720164e-07
-2.96852241e-09
6.44363572e-07
-3.23608239e-09
6.45053556e-07
-3.48654449e-09
6.45786102e-07
-3.71773698e-09
6.46556834e-07
-3.9276499e-09
6.47361062e-07
-4.11450822e-09
6.48193826e-07
-4.27683141e-09
6.49049947e-07
-4.41347094e-09
6.49924086e-07
-4.52364408e-09
6.50810811e-07
-4.60694705e-09
6.51704676e-07
-4.66334852e-09
6.52600307e-07
-4.69318731e-09
6.53492478e-07
-4.69715477e-09
6.5437619e-07
-4.67626196e-09
6.55246737e-07
-4.63181508e-09
6.56099759e-07
-4.56537182e-09
6.56931289e-07
-4.47870253e-09
6.57737782e-07
-4.37373476e-09
6.5851614e-07
-4.25251709e-09
6.59263718e-07
-4.11716019e-09
6.59978329e-07
-3.96980022e-09
6.60658232e-07
-3.812553e-09
6.61302116e-07
-3.64748143e-09
6.61909076e-07
-3.47655751e-09
6.62478582e-07
-3.30164224e-09
6.63010438e-07
-3.1244632e-09
6.63504732e-07
-2.94658928e-09
6.63961763e-07
-2.76941096e-09
6.64382092e-07
-2.59409455e-09
6.64766783e-07
-2.421572e-09
6.65117118e-07
-2.25267588e-09
6.65434512e-07
-2.08815049e-09
6.65720468e-07
-1.92863333e-09
6.65976549e-07
-1.77465321e-09
6.66204354e-07
-1.62662966e-09
6.66405495e-07
-1.48487939e-09
6.66581577e-07
-1.34961818e-09
6.66734166e-07
-1.22096291e-09
6.66864791e-07
-1.09896262e-09
6.66974989e-07
-9.83634801e-10
6.67066275e-07
-8.74902879e-10
6.67140119e-07
-7.72627964e-10
6.67197939e-07
-6.76629794e-10
6.67241088e-07
-5.86698789e-10
6.67270856e-07
-5.0260288e-10
6.67288474e-07
-4.24091099e-10
6.67295121e-07
-3.50895566e-10
6.6729193e-07
-2.82723909e-10
6.67280008e-07
-2.19248044e-10
6.67260547e-07
-1.60174597e-10
6.6723505e-07
-1.05394953e-10
6.67205512e-07
-5.51744588e-11
6.67174523e-07
-1.06556224e-11
6.67140921e-07
3.16423532e-11
6.67098884e-07
6.77894124e-11
6.67050681e-07
9.86762158e-11
6.66997484e-07
1.25791111e-10
6.66940183e-07
1.49904177e-10
6.6687957e-07
1.71491195e-10
6.66816381e-07
1.90840968e-10
6.66751274e-07
2.08155724e-10
6.66684809e-07
2.23616236e-10
6.66617448e-07
2.37368407e-10
6.66549556e-07
2.49515441e-10
6.66481418e-07
2.60134516e-10
6.66413249e-07
2.69295243e-10
6.66345216e-07
2.77069494e-10
6.66277457e-07
2.83533996e-10
6.66210089e-07
2.88771153e-10
6.66143224e-07
2.92868413e-10
6.66076968e-07
2.95915854e-10
6.66011425e-07
2.98003845e-10
6.65946696e-07
2.99219982e-10
6.65882879e-07
2.99647232e-10
6.65820068e-07
2.99361795e-10
6.65758348e-07
2.98432858e-10
6.65697797e-07
2.9692148e-10
6.65638483e-07
2.94881472e-10
6.65580463e-07
2.92359818e-10
6.65523787e-07
2.89397963e-10
6.65468491e-07
2.86032413e-10
6.65414607e-07
2.82296297e-10
6.65362156e-07
2.78220336e-10
6.65311155e-07
2.73833193e-10
6.65261616e-07
2.69162467e-10
6.65213547e-07
2.64234978e-10
6.65166955e-07
2.59076425e-10
6.65121846e-07
2.53711699e-10
6.65078227e-07
2.48164641e-10
6.65036102e-07
2.42457384e-10
6.64995479e-07
2.36610519e-10
6.64956364e-07
2.30642595e-10
6.64918766e-07
2.24570224e-10
6.64882692e-07
2.18407512e-10
6.64848153e-07
2.12166499e-10
6.64815159e-07
2.0585592e-10
6.64783725e-07
1.99484404e-10
6.64753871e-07
1.93041399e-10
6.64725626e-07
1.86574394e-10
6.64699066e-07
1.79812293e-10
6.64674192e-07
1.73842532e-10
1.630912e-10
6.66614479e-07
2.02143719e-10
6.66448286e-07
5.82288321e-10
6.66186232e-07
9.05114722e-10
6.65851362e-07
1.14603879e-09
6.65471237e-07
1.28329832e-09
6.65075239e-07
1.30976194e-09
6.64690474e-07
1.23482646e-09
6.64340107e-07
1.07412772e-09
6.64043758e-07
8.40737465e-10
6.63816582e-07
5.47135546e-10
6.63660155e-07
2.15178495e-10
6.63597331e-07
-1.25225534e-10
6.63614733e-07
-4.14265546e-10
6.63686637e-07
-5.9184765e-10
6.63781208e-07
-6.21034392e-10
6.63861045e-07
-4.87816949e-10
6.63885554e-07
-2.05257008e-10
6.63832846e-07
1.80630196e-10
6.63692907e-07
6.14888142e-10
6.63455463e-07
1.05045667e-09
6.63131499e-07
1.43956648e-09
6.62740474e-07
1.74695064e-09
6.62307173e-07
1.94998349e-09
6.61858338e-07
2.03972184e-09
6.61419663e-07
2.01842238e-09
6.61014185e-07
1.89691077e-09
6.60661325e-07
1.69314492e-09
6.6037581e-07
1.43182541e-09
6.60166144e-07
1.1446747e-09
6.60032742e-07
8.70219657e-10
6.59966322e-07
6.5146247e-10
6.59947507e-07
5.3049077e-10
6.59948312e-07
5.40638506e-10
6.59935634e-07
6.9823637e-10
6.59876365e-07
9.96499197e-10
6.59743508e-07
1.40459736e-09
6.59521616e-07
1.87337873e-09
6.59209303e-07
2.34630862e-09
6.588182e-07
2.77261059e-09
6.58368725e-07
3.11858056e-09
6.57884047e-07
3.37340968e-09
6.57384218e-07
3.54784055e-09
6.56882239e-07
3.66668973e-09
6.56383003e-07
3.75851892e-09
6.55884845e-07
3.84647794e-09
6.55382582e-07
3.94329229e-09
6.54870581e-07
4.05116992e-09
6.54344818e-07
4.16526019e-09
6.53803555e-07
4.27822882e-09
6.53246954e-07
4.38379458e-09
6.5267623e-07
4.47824444e-09
6.52092904e-07
4.56016739e-09
6.51498414e-07
4.62932899e-09
6.50894083e-07
4.68559415e-09
6.50281263e-07
4.72837113e-09
6.49661506e-07
4.75658121e-09
6.49036651e-07
4.76890238e-09
6.48408835e-07
4.76403318e-09
6.47780452e-07
4.74084339e-09
6.47154111e-07
4.6984095e-09
6.46532593e-07
4.63599124e-09
6.45918822e-07
4.55300322e-09
6.45315847e-07
4.44900315e-09
6.44726811e-07
4.32369806e-09
6.44154929e-07
4.17695187e-09
6.43603458e-07
4.00879353e-09
6.43075677e-07
3.81942084e-09
6.42574867e-07
3.60919258e-09
6.42104293e-07
3.37863191e-09
6.41667193e-07
3.128421e-09
6.41266767e-07
2.85938734e-09
6.40906161e-07
2.57249622e-09
6.40588454e-07
2.26883142e-09
6.40316627e-07
1.94957233e-09
6.40093461e-07
1.61599088e-09
6.39921162e-07
1.26946057e-09
6.39802251e-07
9.11518037e-10
6.39739691e-07
5.43550809e-10
6.39738489e-07
1.65574198e-10
6.39797301e-07
-2.16668546e-10
6.39918851e-07
-6.03013434e-10
6.40104221e-07
-9.91713055e-10
6.4035423e-07
-1.38115459e-09
6.40669216e-07
-1.76891709e-09
6.41048825e-07
-2.15251591e-09
6.41492165e-07
-2.52940625e-09
6.41997796e-07
-2.89685376e-09
6.42563675e-07
-3.25201367e-09
6.43187144e-07
-3.59199158e-09
6.43864956e-07
-3.91389414e-09
6.44593301e-07
-4.21488947e-09
6.45367851e-07
-4.4922871e-09
6.46183808e-07
-4.74360744e-09
6.47035962e-07
-4.96666199e-09
6.47918751e-07
-5.15962046e-09
6.48826337e-07
-5.32105677e-09
6.49752688e-07
-5.44999511e-09
6.50691674e-07
-5.54593284e-09
6.51637164e-07
-5.6088385e-09
6.52583129e-07
-5.63915211e-09
6.53523737e-07
-5.63776355e-09
6.54453445e-07
-5.60596994e-09
6.55367072e-07
-5.54544133e-09
6.56259862e-07
-5.45816254e-09
6.5712754e-07
-5.34638065e-09
6.57966339e-07
-5.21253328e-09
6.58773022e-07
-5.05920016e-09
6.5954489e-07
-4.88902865e-09
6.60279777e-07
-4.70468646e-09
6.60976028e-07
-4.50880418e-09
6.61632481e-07
-4.30393415e-09
6.62248427e-07
-4.09250354e-09
6.62823574e-07
-3.87678922e-09
6.63358001e-07
-3.65889103e-09
6.63852117e-07
-3.44070499e-09
6.64306619e-07
-3.22391265e-09
6.64722492e-07
-3.00996803e-09
6.65101015e-07
-2.80009433e-09
6.65443667e-07
-2.59532848e-09
6.65752068e-07
-2.39655094e-09
6.66027924e-07
-2.20448987e-09
6.66273002e-07
-2.01973063e-09
6.66489093e-07
-1.84272069e-09
6.66677995e-07
-1.67378132e-09
6.66841492e-07
-1.51311507e-09
6.66981349e-07
-1.36082072e-09
6.67099298e-07
-1.21691089e-09
6.67196986e-07
-1.08132344e-09
6.67276004e-07
-9.5392099e-10
6.67337883e-07
-8.34506274e-10
6.6738409e-07
-7.22837201e-10
6.67416032e-07
-6.18640472e-10
6.67435049e-07
-5.21620468e-10
6.67442427e-07
-4.31468516e-10
6.67439417e-07
-3.47885483e-10
6.67427304e-07
-2.70611711e-10
6.67407365e-07
-1.99308172e-10
6.67380724e-07
-1.33534209e-10
6.67348045e-07
-7.27161528e-11
6.67308658e-07
-1.57866564e-11
6.67263414e-07
3.45881429e-11
6.6721556e-07
7.94965255e-11
6.67164016e-07
1.19333253e-10
6.67108415e-07
1.54276523e-10
6.67049197e-07
1.85009269e-10
6.66986919e-07
2.1218253e-10
6.66922116e-07
2.36294163e-10
6.66855264e-07
2.57692961e-10
6.66786787e-07
2.76632445e-10
6.66717087e-07
2.93316102e-10
6.6664654e-07
3.07915914e-10
6.6657548e-07
3.20575339e-10
6.66504201e-07
3.31413847e-10
6.66432956e-07
3.40540073e-10
6.66361962e-07
3.48062829e-10
6.66291403e-07
3.54093264e-10
6.66221431e-07
3.58743569e-10
6.66152174e-07
3.62124785e-10
6.66083746e-07
3.64344751e-10
6.66016242e-07
3.65507379e-10
6.65949751e-07
3.65710929e-10
6.65884351e-07
3.65047147e-10
6.65820113e-07
3.63599561e-10
6.65757102e-07
3.61444067e-10
6.65695375e-07
3.58648251e-10
6.65634984e-07
3.55272644e-10
6.65575973e-07
3.51371041e-10
6.65518379e-07
3.46991661e-10
6.65462234e-07
3.42177429e-10
6.65407563e-07
3.36967435e-10
6.65354386e-07
3.3139776e-10
6.65302717e-07
3.25501642e-10
6.65252569e-07
3.19310497e-10
6.6520395e-07
3.1285421e-10
6.65156866e-07
3.06160791e-10
6.6511132e-07
2.99256815e-10
6.65067318e-07
2.92167319e-10
6.6502486e-07
2.84915176e-10
6.64983949e-07
2.77521359e-10
6.64944587e-07
2.70004429e-10
6.64906777e-07
2.62380719e-10
6.64870521e-07
2.54663713e-10
6.64835823e-07
2.46864564e-10
6.64802688e-07
2.38990696e-10
6.64771123e-07
2.31049546e-10
6.64741136e-07
2.23028275e-10
6.64712725e-07
2.14984756e-10
6.64685912e-07
2.06626055e-10
6.64660415e-07
1.99339634e-10
1.86562044e-10
6.66604559e-07
2.64284667e-10
6.66434672e-07
7.52175022e-10
6.66172539e-07
1.16724851e-09
6.65840767e-07
1.47781012e-09
6.65466032e-07
1.65803338e-09
6.6507607e-07
1.69972425e-09
6.64696603e-07
1.61429323e-09
6.64349956e-07
1.42077462e-09
6.64055516e-07
1.13517766e-09
6.63829982e-07
7.72669293e-10
6.63685805e-07
3.59356144e-10
6.63617597e-07
-5.70176375e-11
6.63617084e-07
-4.13752844e-10
6.63668218e-07
-6.42981282e-10
6.63741744e-07
-6.94560655e-10
6.6380358e-07
-5.49653064e-10
6.63823877e-07
-2.25554425e-10
6.6377507e-07
2.29437937e-10
6.63636804e-07
7.531542e-10
6.63408227e-07
1.27903371e-09
6.63098458e-07
1.74933545e-09
6.62725021e-07
2.12038734e-09
6.62310073e-07
2.36493099e-09
6.61877951e-07
2.47184396e-09
6.61452863e-07
2.4435101e-09
6.61057133e-07
2.29264085e-09
6.60710019e-07
2.040259e-09
6.60426519e-07
1.71532554e-09
6.60215775e-07
1.35541908e-09
6.60079154e-07
1.0068409e-09
6.60008524e-07
7.22091966e-10
6.59985557e-07
5.5345734e-10
6.59983009e-07
5.43186708e-10
6.59968595e-07
7.12650734e-10
6.59910466e-07
1.05462834e-09
6.59782753e-07
1.53230982e-09
6.59570145e-07
2.08598735e-09
6.59270212e-07
2.64624139e-09
6.58892699e-07
3.15012378e-09
6.58455909e-07
3.55537042e-09
6.57981298e-07
3.84802021e-09
6.57488004e-07
4.04113488e-09
6.56988989e-07
4.16570498e-09
6.56489755e-07
4.25775296e-09
6.55989525e-07
4.34670798e-09
6.55483913e-07
4.44890382e-09
6.54967781e-07
4.56730246e-09
6.54437244e-07
4.69579691e-09
6.5389045e-07
4.82502276e-09
6.53327334e-07
4.9469109e-09
6.52748899e-07
5.05667945e-09
6.52156534e-07
5.15253238e-09
6.51551635e-07
5.23422763e-09
6.50935547e-07
5.3016823e-09
6.50309681e-07
5.35423717e-09
6.49675662e-07
5.39059975e-09
6.49035416e-07
5.40914865e-09
6.48391178e-07
5.40827152e-09
6.4774546e-07
5.38656085e-09
6.47101008e-07
5.34286171e-09
6.46460757e-07
5.27624231e-09
6.45827803e-07
5.1859574e-09
6.45205373e-07
5.0714332e-09
6.44596795e-07
4.93227552e-09
6.44005467e-07
4.76828025e-09
6.43434817e-07
4.57944323e-09
6.42888276e-07
4.36596235e-09
6.42369246e-07
4.12822223e-09
6.41881089e-07
3.86678905e-09
6.41427115e-07
3.58239469e-09
6.41010587e-07
3.27591549e-09
6.40634719e-07
2.94836426e-09
6.40302674e-07
2.60087666e-09
6.40017547e-07
2.23469912e-09
6.3978235e-07
1.8511882e-09
6.39600018e-07
1.45179227e-09
6.39473411e-07
1.03812507e-09
6.39404869e-07
6.12092947e-10
6.39394157e-07
1.76285425e-10
6.39446321e-07
-2.68831739e-10
6.39563139e-07
-7.19831831e-10
6.39746183e-07
-1.17475701e-09
6.39996133e-07
-1.63110408e-09
6.40313367e-07
-2.08615149e-09
6.4069779e-07
-2.53693908e-09
6.41148691e-07
-2.98030693e-09
6.4166474e-07
-3.41290336e-09
6.42243976e-07
-3.83124925e-09
6.42883781e-07
-4.23179708e-09
6.43580888e-07
-4.61100098e-09
6.4433139e-07
-4.96539148e-09
6.45130774e-07
-5.29167123e-09
6.45973966e-07
-5.58679916e-09
6.46855392e-07
-5.84808808e-09
6.4776906e-07
-6.07328798e-09
6.48708648e-07
-6.26064537e-09
6.49667616e-07
-6.40896305e-09
6.50639315e-07
-6.51763141e-09
6.51617105e-07
-6.58662844e-09
6.52594473e-07
-6.61652007e-09
6.53565142e-07
-6.6084324e-09
6.54523169e-07
-6.56399732e-09
6.55463034e-07
-6.48530626e-09
6.56379707e-07
-6.3748353e-09
6.57268702e-07
-6.23537643e-09
6.58126116e-07
-6.06994649e-09
6.5894864e-07
-5.88172411e-09
6.59733568e-07
-5.67395693e-09
6.60478783e-07
-5.44990182e-09
6.61182733e-07
-5.21275435e-09
6.61844398e-07
-4.96559852e-09
6.62463245e-07
-4.71135108e-09
6.63039189e-07
-4.45273245e-09
6.63572535e-07
-4.1922374e-09
6.64063938e-07
-3.93210805e-09
6.64514354e-07
-3.67432846e-09
6.64925005e-07
-3.42061949e-09
6.6529735e-07
-3.17243948e-09
6.65633033e-07
-2.93101134e-09
6.65933828e-07
-2.69734587e-09
6.66201593e-07
-2.47225466e-09
6.66438232e-07
-2.25636944e-09
6.66645665e-07
-2.05015377e-09
6.66825805e-07
-1.85392095e-09
6.66980536e-07
-1.66784687e-09
6.67111706e-07
-1.49199018e-09
6.67221104e-07
-1.326309e-09
6.67310454e-07
-1.17067394e-09
6.67381415e-07
-1.02488133e-09
6.67435573e-07
-8.88665001e-10
6.67474444e-07
-7.61707975e-10
6.67499461e-07
-6.43657149e-10
6.67511976e-07
-5.3413519e-10
6.67513259e-07
-4.3275158e-10
6.67504487e-07
-3.39114215e-10
6.67486704e-07
-2.52828572e-10
6.67460861e-07
-1.73465282e-10
6.67427876e-07
-1.00548694e-10
6.6738885e-07
-3.36902981e-11
6.67345725e-07
2.7338502e-11
6.67298314e-07
8.1998721e-11
6.67246794e-07
1.31017109e-10
6.67191406e-07
1.74721389e-10
6.67132233e-07
2.13449076e-10
6.67069624e-07
2.47618362e-10
6.67004086e-07
2.77720175e-10
6.66936185e-07
3.04195405e-10
6.66866486e-07
3.27391998e-10
6.66795511e-07
3.47606916e-10
6.66723709e-07
3.65118711e-10
6.66651441e-07
3.80184096e-10
6.66578994e-07
3.93022172e-10
6.66506594e-07
4.03813304e-10
6.66434423e-07
4.12711562e-10
6.6636263e-07
4.19855892e-10
6.66291347e-07
4.25375638e-10
6.66220697e-07
4.29394432e-10
6.6615079e-07
4.32031322e-10
6.66081733e-07
4.33401333e-10
6.66013626e-07
4.336149e-10
6.6594656e-07
4.32776703e-10
6.65880622e-07
4.3098576e-10
6.65815888e-07
4.28333322e-10
6.65752428e-07
4.24903908e-10
6.65690302e-07
4.2077403e-10
6.65629562e-07
4.16013084e-10
6.65570249e-07
4.10683403e-10
6.655124e-07
4.04841389e-10
6.6545604e-07
3.98537532e-10
6.65401189e-07
3.9181772e-10
6.65347863e-07
3.84723851e-10
6.65296071e-07
3.77293793e-10
6.65245819e-07
3.69562493e-10
6.65197111e-07
3.61562334e-10
6.65149949e-07
3.53322833e-10
6.65104334e-07
3.44871376e-10
6.65060268e-07
3.36233268e-10
6.65017752e-07
3.27431252e-10
6.64976787e-07
3.18486113e-10
6.64937376e-07
3.09416264e-10
6.64899518e-07
3.00237964e-10
6.64863218e-07
2.90964581e-10
6.64828475e-07
2.81607138e-10
6.64795293e-07
2.7217305e-10
6.64763672e-07
2.62669796e-10
6.64733616e-07
2.53084657e-10
6.64705123e-07
2.43477297e-10
6.6467823e-07
2.33519346e-10
6.6465287e-07
2.24700157e-10
2.09399398e-10
6.66609551e-07
3.21433182e-10
6.66442181e-07
9.19545341e-10
6.66178513e-07
1.43091617e-09
6.65839291e-07
1.81703262e-09
6.65451482e-07
2.04584253e-09
6.65044748e-07
2.10645809e-09
6.64647387e-07
2.01165384e-09
6.64284427e-07
1.78373542e-09
6.63977618e-07
1.44198577e-09
6.63745518e-07
1.00476986e-09
6.63601108e-07
5.03766174e-10
6.63547794e-07
-3.70336993e-12
6.6357589e-07
-4.41849129e-10
6.63664257e-07
-7.31348258e-10
6.63779591e-07
-8.09894756e-10
6.63883125e-07
-6.53187219e-10
6.63937376e-07
-2.79805611e-10
6.63909865e-07
2.56949041e-10
6.63783319e-07
8.79700797e-10
6.63553909e-07
1.50844306e-09
6.63231578e-07
2.07166645e-09
6.62836468e-07
2.51549756e-09
6.62394457e-07
2.80694211e-09
6.61933737e-07
2.93256419e-09
6.6148226e-07
2.89498678e-09
6.61065803e-07
2.70909822e-09
6.60706449e-07
2.39961209e-09
6.60421104e-07
2.00067069e-09
6.60219694e-07
1.55682909e-09
6.6010315e-07
1.12338561e-09
6.6006175e-07
7.63491458e-10
6.60074817e-07
5.40390176e-10
6.60112499e-07
5.05505036e-10
6.60139328e-07
6.85821245e-10
6.60119418e-07
1.07453848e-09
6.60023005e-07
1.62872302e-09
6.59832182e-07
2.27681075e-09
6.5954381e-07
2.93461327e-09
6.59168705e-07
3.52522863e-09
6.58727431e-07
3.99664469e-09
6.58244115e-07
4.33133631e-09
6.57740278e-07
4.54497143e-09
6.57230529e-07
4.67545431e-09
6.56721129e-07
4.76715269e-09
6.56211298e-07
4.85653928e-09
6.55696156e-07
4.96404541e-09
6.55169885e-07
5.09357382e-09
6.54627966e-07
5.23771536e-09
6.54068078e-07
5.38491053e-09
6.53489869e-07
5.52512064e-09
6.52894192e-07
5.65235604e-09
6.52282372e-07
5.76435285e-09
6.51655781e-07
5.8608181e-09
6.5101577e-07
5.94169304e-09
6.50363787e-07
6.00622093e-09
6.49701529e-07
6.0528578e-09
6.49031037e-07
6.07964041e-09
6.48354705e-07
6.08460386e-09
6.47675238e-07
6.06602757e-09
6.46995602e-07
6.02249759e-09
6.46318972e-07
5.95287179e-09
6.45648696e-07
5.85623423e-09
6.44988254e-07
5.73187478e-09
6.44341234e-07
5.57929601e-09
6.43711292e-07
5.3982222e-09
6.43102129e-07
5.18860618e-09
6.42517463e-07
4.95062753e-09
6.41961012e-07
4.6846736e-09
6.41436466e-07
4.39133532e-09
6.40947467e-07
4.07139341e-09
6.40497586e-07
3.72579711e-09
6.40090295e-07
3.3556543e-09
6.39728959e-07
2.96221272e-09
6.39416819e-07
2.54683964e-09
6.39156987e-07
2.11102055e-09
6.38952417e-07
1.65636184e-09
6.38805942e-07
1.18460044e-09
6.3872042e-07
6.97614925e-10
6.38699229e-07
1.97475695e-10
6.38743953e-07
-3.13555666e-10
6.38856769e-07
-8.32647143e-10
6.39039267e-07
-1.3572554e-09
6.3929272e-07
-1.88455699e-09
6.39617881e-07
-2.41131261e-09
6.40014929e-07
-2.9339866e-09
6.40483412e-07
-3.44879071e-09
6.41022199e-07
-3.95169052e-09
6.4162942e-07
-4.43846991e-09
6.42302428e-07
-4.90480531e-09
6.43037792e-07
-5.34636411e-09
6.43831303e-07
-5.75890327e-09
6.44678021e-07
-6.13838869e-09
6.45572323e-07
-6.48110102e-09
6.4650799e-07
-6.78375534e-09
6.47478305e-07
-7.04360299e-09
6.48476165e-07
-7.25850559e-09
6.49494212e-07
-7.42700949e-09
6.50524967e-07
-7.54838652e-09
6.51560975e-07
-7.62263681e-09
6.52594944e-07
-7.65048884e-09
6.53619875e-07
-7.63336387e-09
6.54629184e-07
-7.57330644e-09
6.556168e-07
-7.47292226e-09
6.56577247e-07
-7.33528155e-09
6.575057e-07
-7.16382938e-09
6.58398024e-07
-6.96227076e-09
6.59250789e-07
-6.73448877e-09
6.60061262e-07
-6.48443035e-09
6.60827391e-07
-6.21603135e-09
6.61547768e-07
-5.93313122e-09
6.62221582e-07
-5.63941258e-09
6.62848568e-07
-5.33833649e-09
6.63428945e-07
-5.03310974e-09
6.63963361e-07
-4.72665338e-09
6.64452829e-07
-4.42157576e-09
6.64898672e-07
-4.12017138e-09
6.65302473e-07
-3.82442044e-09
6.65666026e-07
-3.53599243e-09
6.65991286e-07
-3.25627139e-09
6.66280318e-07
-2.98637822e-09
6.66535252e-07
-2.72718871e-09
6.66758244e-07
-2.47936117e-09
6.66951445e-07
-2.24335491e-09
6.67116978e-07
-2.0194542e-09
6.67256917e-07
-1.80778545e-09
6.67373268e-07
-1.60834113e-09
6.67467957e-07
-1.42099851e-09
6.67542819e-07
-1.24553593e-09
6.67599591e-07
-1.08165301e-09
6.67639913e-07
-9.28987277e-10
6.67665334e-07
-7.87128573e-10
6.67677311e-07
-6.55634268e-10
6.67677215e-07
-5.34038868e-10
6.67666323e-07
-4.21859816e-10
6.67645812e-07
-3.18603056e-10
6.67616759e-07
-2.23776205e-10
6.67580248e-07
-1.36953993e-10
6.67537651e-07
-5.79518654e-11
6.67490847e-07
1.31140352e-11
6.67438655e-07
7.95303384e-11
6.67382114e-07
1.38539371e-10
6.67321828e-07
1.91303257e-10
6.67258286e-07
2.38263494e-10
6.67191881e-07
2.79854204e-10
6.67123e-07
3.16499267e-10
6.67052065e-07
3.4865472e-10
6.66979473e-07
3.76787439e-10
6.66905553e-07
4.0131233e-10
6.66830596e-07
4.22563604e-10
6.66754903e-07
4.4081165e-10
6.66678791e-07
4.5629617e-10
6.66602571e-07
4.69242877e-10
6.66526522e-07
4.7986177e-10
6.66450889e-07
4.88345041e-10
6.66375874e-07
4.9487083e-10
6.66301643e-07
4.99606743e-10
6.66228326e-07
5.02711372e-10
6.6615603e-07
5.04327301e-10
6.66084844e-07
5.04586711e-10
6.66014846e-07
5.0361339e-10
6.659461e-07
5.01522932e-10
6.65878662e-07
4.9842304e-10
6.65812584e-07
4.94412001e-10
6.65747908e-07
4.89580064e-10
6.65684673e-07
4.84008664e-10
6.65622914e-07
4.77771959e-10
6.65562661e-07
4.70936886e-10
6.65503938e-07
4.63564272e-10
6.65446766e-07
4.55708695e-10
6.65391164e-07
4.47419926e-10
6.65337145e-07
4.38743561e-10
6.65284717e-07
4.29720904e-10
6.6523389e-07
4.20390112e-10
6.65184666e-07
4.10786486e-10
6.65137046e-07
4.00942015e-10
6.65091032e-07
3.9088617e-10
6.65046619e-07
3.80645936e-10
6.65003805e-07
3.70245227e-10
6.64962586e-07
3.59705556e-10
6.64922956e-07
3.49045618e-10
6.64884913e-07
3.38281676e-10
6.6484845e-07
3.27426878e-10
6.64813565e-07
3.1649207e-10
6.64780254e-07
3.05484495e-10
6.64748511e-07
2.94412314e-10
6.64718333e-07
2.83262605e-10
6.64689702e-07
2.7210896e-10
6.64662619e-07
2.60602371e-10
6.64636795e-07
2.50523896e-10
2.33322696e-10
6.66608652e-07
3.79381231e-10
6.66439912e-07
1.08828574e-09
6.66174385e-07
1.69644308e-09
6.6583339e-07
2.15802738e-09
6.65444023e-07
2.43520907e-09
6.65035673e-07
2.51480835e-09
6.64636306e-07
2.41102057e-09
6.64270726e-07
2.14931583e-09
6.63960705e-07
1.75200696e-09
6.63724599e-07
1.24087518e-09
6.63574708e-07
6.53657584e-10
6.63515541e-07
5.54638687e-11
6.63543431e-07
-4.69739076e-10
6.63631844e-07
-8.19762065e-10
6.63747578e-07
-9.25628068e-10
6.63851684e-07
-7.57293815e-10
6.63905961e-07
-3.34082684e-10
6.63882588e-07
2.80322833e-10
6.63763367e-07
9.98921019e-10
6.63544123e-07
1.7276877e-09
6.63233375e-07
2.38241462e-09
6.62849385e-07
2.89948728e-09
6.62416902e-07
3.23942456e-09
6.61963666e-07
3.38580067e-09
6.6151754e-07
3.34111234e-09
6.61104488e-07
3.12215082e-09
6.60747064e-07
2.75703541e-09
6.6046294e-07
2.28479506e-09
6.60263064e-07
1.75670557e-09
6.60149539e-07
1.23690997e-09
6.60113779e-07
7.99251698e-10
6.60135731e-07
5.18437755e-10
6.60184987e-07
4.56248957e-10
6.60224876e-07
6.45932867e-10
6.60218909e-07
1.08050557e-09
6.60137078e-07
1.71055353e-09
6.59960986e-07
2.45290261e-09
6.59686627e-07
3.20897302e-09
6.59323838e-07
3.88801741e-09
6.5889245e-07
4.42803268e-09
6.58416293e-07
4.80749321e-09
6.57917005e-07
5.04425916e-09
6.57409549e-07
5.18291056e-09
6.56900561e-07
5.2761403e-09
6.56389497e-07
5.36760356e-09
6.55871521e-07
5.48202171e-09
6.55340701e-07
5.62439317e-09
6.54792335e-07
5.78608173e-09
6.54223912e-07
5.95333362e-09
6.53634934e-07
6.11409814e-09
6.53026167e-07
6.26112395e-09
6.52398887e-07
6.39163193e-09
6.51754465e-07
6.50524056e-09
6.51094276e-07
6.60188226e-09
6.50419828e-07
6.68066866e-09
6.49732919e-07
6.7397668e-09
6.49035728e-07
6.77683169e-09
6.48330825e-07
6.78950633e-09
6.47621133e-07
6.77571973e-09
6.46909866e-07
6.73376491e-09
6.46200479e-07
6.66225887e-09
6.45496625e-07
6.56008837e-09
6.44802113e-07
6.42638597e-09
6.4412087e-07
6.26053946e-09
6.43456887e-07
6.06220499e-09
6.42814176e-07
5.83131738e-09
6.42196717e-07
5.56808669e-09
6.41608421e-07
5.27296907e-09
6.41053109e-07
4.9466479e-09
6.405345e-07
4.59000196e-09
6.40056228e-07
4.20406979e-09
6.39621845e-07
3.79003638e-09
6.39234839e-07
3.34921885e-09
6.38898622e-07
2.88305699e-09
6.38616518e-07
2.39312408e-09
6.38391748e-07
1.88113273e-09
6.38227398e-07
1.34894975e-09
6.38126352e-07
7.98661558e-10
6.38091218e-07
2.32609489e-10
6.3812486e-07
-3.47197443e-10
6.38229837e-07
-9.37624861e-10
6.38408271e-07
-1.53568879e-09
6.38661737e-07
-2.13802345e-09
6.38991299e-07
-2.74087414e-09
6.3939743e-07
-3.34011775e-09
6.3987993e-07
-3.93129057e-09
6.40437851e-07
-4.50961179e-09
6.41069438e-07
-5.07005721e-09
6.41772075e-07
-5.60744178e-09
6.4254225e-07
-6.11653914e-09
6.43375552e-07
-6.59220529e-09
6.44266691e-07
-7.02952768e-09
6.45209551e-07
-7.42396143e-09
6.46197279e-07
-7.77148308e-09
6.47222399e-07
-8.06872318e-09
6.48276958e-07
-8.31306476e-09
6.49352688e-07
-8.50273877e-09
6.50441177e-07
-8.63687638e-09
6.51534054e-07
-8.71551307e-09
6.5262315e-07
-8.73958535e-09
6.53700669e-07
-8.71088281e-09
6.54759321e-07
-8.6319583e-09
6.55792443e-07
-8.50604437e-09
6.56794091e-07
-8.33692898e-09
6.577591e-07
-8.12883899e-09
6.58683125e-07
-7.88629556e-09
6.59562645e-07
-7.61400884e-09
6.60394952e-07
-7.31673782e-09
6.61178118e-07
-6.99919733e-09
6.61910943e-07
-6.66595591e-09
6.62592895e-07
-6.32136422e-09
6.6322404e-07
-5.96948121e-09
6.63804968e-07
-5.61403834e-09
6.64336722e-07
-5.25840711e-09
6.64820719e-07
-4.90557308e-09
6.65258687e-07
-4.55813957e-09
6.65652599e-07
-4.21833207e-09
6.66004613e-07
-3.8880062e-09
6.66317019e-07
-3.56867721e-09
6.66592186e-07
-3.26154603e-09
6.6683252e-07
-2.96752272e-09
6.67040421e-07
-2.68726172e-09
6.67218253e-07
-2.42118689e-09
6.67368321e-07
-2.1695223e-09
6.67492851e-07
-1.9323157e-09
6.67593979e-07
-1.70946907e-09
6.67673744e-07
-1.50076293e-09
6.67734084e-07
-1.30587597e-09
6.67776837e-07
-1.12440667e-09
6.67803739e-07
-9.55888601e-10
6.67816414e-07
-7.99803665e-10
6.67816378e-07
-6.55598906e-10
6.67805041e-07
-5.22701829e-10
6.67783718e-07
-4.00536062e-10
6.6775365e-07
-2.88535895e-10
6.67716e-07
-1.86126327e-10
6.67671577e-07
-9.25308538e-11
6.67619818e-07
-6.19215653e-12
6.67562784e-07
7.01476169e-11
6.67502639e-07
1.3967568e-10
6.67438874e-07
2.02304426e-10
6.67371914e-07
2.58262603e-10
6.67302176e-07
3.08002128e-10
6.67230033e-07
3.51996417e-10
6.67155832e-07
3.90700621e-10
6.67079929e-07
4.24558161e-10
6.67002721e-07
4.53995033e-10
6.66924629e-07
4.79404244e-10
6.66846042e-07
5.01150827e-10
6.66767278e-07
5.19575218e-10
6.66688588e-07
5.34986772e-10
6.66610173e-07
5.47657799e-10
6.6653221e-07
5.57824919e-10
6.66454857e-07
5.65697944e-10
6.66378255e-07
5.71472888e-10
6.6630253e-07
5.75331258e-10
6.662278e-07
5.77441358e-10
6.66154168e-07
5.77959176e-10
6.66081725e-07
5.77029728e-10
6.6601055e-07
5.74788379e-10
6.65940713e-07
5.7136018e-10
6.65872275e-07
5.66860873e-10
6.65805291e-07
5.61396376e-10
6.65739806e-07
5.55064661e-10
6.6567586e-07
5.47954664e-10
6.65613484e-07
5.40147807e-10
6.65552703e-07
5.31717923e-10
6.65493535e-07
5.22732341e-10
6.65435992e-07
5.1325151e-10
6.65380082e-07
5.03330342e-10
6.65325807e-07
4.93018691e-10
6.65273167e-07
4.82361065e-10
6.65222159e-07
4.71397898e-10
6.65172779e-07
4.60165967e-10
6.65125023e-07
4.48698059e-10
6.65078886e-07
4.37024026e-10
6.65034361e-07
4.25170981e-10
6.64991443e-07
4.13162773e-10
6.64950128e-07
4.01020852e-10
6.64910409e-07
3.88763887e-10
6.64872283e-07
3.76408221e-10
6.64835743e-07
3.6396714e-10
6.64800783e-07
3.51451752e-10
6.64767398e-07
3.38869861e-10
6.6473558e-07
3.26230219e-10
6.64705322e-07
3.1352074e-10
6.64676615e-07
3.00815083e-10
6.64649489e-07
2.87728296e-10
6.64623892e-07
2.76121318e-10
2.56361574e-10
6.66608198e-07
4.37883113e-10
6.66437896e-07
1.25858806e-09
6.66168827e-07
1.96551206e-09
6.65821677e-07
2.50517753e-09
6.65423749e-07
2.833137e-09
6.6500549e-07
2.93306708e-09
6.64596238e-07
2.82027299e-09
6.64222242e-07
2.52331118e-09
6.63906782e-07
2.0674672e-09
6.63669843e-07
1.47781398e-09
6.63525825e-07
7.97676039e-10
6.63481354e-07
9.99344196e-11
6.63519817e-07
-5.08201439e-10
6.63623609e-07
-9.23554632e-10
6.63757174e-07
-1.05919255e-09
6.63879264e-07
-8.79384068e-10
6.63950759e-07
-4.0557743e-10
6.63939426e-07
2.91655792e-10