/*--------------------------------*- C++ -*----------------------------------*\
| =========                 |                                                 |
| \\      /  F ield         | OpenFOAM: The Open Source CFD Toolbox           |
|  \\    /   O peration     | Version:  v2012                                 |
|   \\  /    A nd           | Website:  www.openfoam.com                      |
|    \\/     M anipulation  |                                                 |
\*---------------------------------------------------------------------------*/
FoamFile
{
    version     2.0;
    format      ascii;
    class       volScalarField;
    location    "2.29";
    object      rAU;
}
// * * * * * * * * * * * * * * * * * * * * * * * * * * * * * * * * * * * * * //

dimensions      [0 0 1 0 0 0 0];


internalField   nonuniform List<scalar> 
28416
(
0.000659026903
0.000659037083
0.00065903591
0.000659036486
0.000659038876
0.00065904291
0.000659048187
0.000659054254
0.000659060716
0.000659067199
0.000659072041
0.000659071184
0.000659069743
0.000659068789
0.000659068765
0.000659069986
0.000659072519
0.000659073505
0.000659068537
0.000659064563
0.000659062006
0.000659061208
0.000659062308
0.000659065242
0.000659069785
0.000659075578
0.000659082164
0.000659089006
0.000659095518
0.000659101096
0.000659105176
0.000659107323
0.000659107309
0.000659105186
0.000659101369
0.00065909658
0.000659091669
0.000659087471
0.00065908463
0.000659083475
0.000659083987
0.00065908587
0.000659088682
0.000659091988
0.000659095472
0.000659098988
0.000659102536
0.000659106203
0.000659110094
0.00065911429
0.00065911883
0.000659123722
0.00065912896
0.000659134535
0.000659140443
0.000659146686
0.000659153264
0.000659160175
0.000659167411
0.00065917496
0.000659182803
0.000659190919
0.000659199282
0.000659207864
0.00065921663
0.000659225544
0.000659234572
0.000659243669
0.000659252789
0.000659261889
0.000659270915
0.000659279813
0.000659288531
0.000659297007
0.000659305185
0.000659313011
0.00065932043
0.000659327415
0.000659333953
0.000659335783
0.000659331455
0.000659326421
0.000659320691
0.000659314291
0.000659307244
0.000659299583
0.00065929134
0.000659282561
0.000659273294
0.000659263594
0.000659253521
0.000659243144
0.000659232528
0.00065922174
0.000659210856
0.000659199939
0.000659189057
0.000659178278
0.00065916766
0.00065915726
0.000659147135
0.000659137328
0.000659127882
0.000659118831
0.000659110207
0.00065910203
0.000659094319
0.000659087083
0.000659080329
0.000659074056
0.000659068264
0.000659062942
0.000659058079
0.000659053665
0.000659049681
0.000659046111
0.000659042941
0.000659040151
0.00065903772
0.000659035629
0.00065903385
0.000659032363
0.000659031144
0.000659030174
0.00065902943
0.000659028893
0.000659028547
0.000659028372
0.000659028351
0.000659028473
0.000659028719
0.000659029076
0.000659029535
0.00065903008
0.000659030701
0.000659031392
0.000659032138
0.000659032933
0.000659033767
0.000659034616
0.000659035447
0.000659035917
0.00065903572
0.000659035633
0.000659035677
0.000659035823
0.000659036055
0.000659036356
0.000659036719
0.000659037132
0.000659037587
0.000659038083
0.000659038611
0.000659039169
0.000659039757
0.000659040369
0.000659041002
0.000659041656
0.000659042324
0.000659043005
0.000659043694
0.000659044391
0.00065904509
0.000659045793
0.000659046494
0.000659047192
0.000659047884
0.000659048573
0.000659049254
0.000659049926
0.000659050592
0.000659051247
0.000659051891
0.000659052526
0.000659053149
0.000659053758
0.000659054358
0.000659054942
0.000659055513
0.000659056069
0.000659056612
0.000659057139
0.000659057649
0.000659058145
0.000659058624
0.000659059086
0.000659059532
0.000659059963
0.000659060357
0.00065907378
0.000659017185
0.000659027738
0.00065902706
0.000659028122
0.000659030857
0.000659035016
0.000659040183
0.000659045924
0.000659051869
0.000659057714
0.000659063193
0.000659064008
0.000659061448
0.000659059251
0.000659058118
0.000659058565
0.000659060858
0.00065906144
0.000659058125
0.000659055898
0.000659055171
0.000659056121
0.00065905872
0.000659062766
0.000659067945
0.000659073874
0.000659080133
0.000659086276
0.000659091854
0.000659096426
0.000659099615
0.000659101166
0.000659101023
0.000659099377
0.00065909668
0.000659093585
0.000659090818
0.00065908903
0.000659088659
0.00065908985
0.000659092461
0.000659096145
0.000659100474
0.000659105074
0.000659109705
0.000659114283
0.000659118848
0.0006591235
0.000659128342
0.000659133441
0.000659138824
0.000659144491
0.000659150428
0.00065915662
0.00065916306
0.000659169742
0.000659176661
0.000659183806
0.000659191163
0.000659198713
0.000659206433
0.000659214297
0.000659222274
0.000659230334
0.000659238441
0.000659246557
0.000659254646
0.000659262663
0.000659270566
0.000659278315
0.00065928586
0.000659293155
0.000659300157
0.000659306815
0.000659313084
0.000659318927
0.000659324295
0.000659329138
0.000659333405
0.000659332734
0.000659327709
0.000659321954
0.00065931547
0.000659308277
0.000659300399
0.000659291871
0.00065928273
0.00065927303
0.000659262821
0.000659252169
0.00065924114
0.000659229812
0.000659218256
0.000659206553
0.000659194786
0.000659183028
0.000659171356
0.000659159849
0.000659148571
0.000659137586
0.000659126956
0.000659116728
0.000659106947
0.000659097647
0.00065908886
0.000659080602
0.000659072891
0.00065906573
0.000659059119
0.000659053054
0.000659047526
0.000659042519
0.000659038015
0.000659033996
0.000659030437
0.000659027315
0.000659024608
0.000659022289
0.000659020331
0.000659018712
0.000659017401
0.000659016374
0.000659015604
0.000659015072
0.000659014752
0.000659014622
0.000659014666
0.000659014861
0.000659015191
0.000659015644
0.000659016201
0.000659016848
0.000659017579
0.000659018376
0.000659019229
0.00065902013
0.000659021066
0.000659022026
0.000659023008
0.000659024013
0.000659024638
0.000659024793
0.000659024924
0.000659025152
0.000659025472
0.000659025865
0.00065902632
0.000659026828
0.000659027385
0.000659027979
0.000659028605
0.000659029261
0.000659029939
0.000659030635
0.000659031348
0.000659032072
0.000659032804
0.000659033544
0.000659034288
0.000659035032
0.000659035775
0.000659036518
0.000659037254
0.000659037987
0.000659038712
0.000659039428
0.000659040133
0.00065904083
0.000659041515
0.000659042186
0.000659042847
0.000659043493
0.000659044125
0.000659044745
0.000659045349
0.000659045937
0.000659046512
0.000659047071
0.000659047613
0.000659048139
0.000659048651
0.000659049145
0.000659049621
0.000659050083
0.000659050527
0.000659050953
0.000659051364
0.000659051759
0.000659052127
0.000659065494
0.0006590166
0.000659025982
0.000659024269
0.000659024516
0.00065902671
0.000659030633
0.000659035862
0.000659041932
0.000659048446
0.000659055049
0.000659061301
0.000659064462
0.000659061208
0.000659058635
0.000659057487
0.000659058306
0.000659061273
0.00065906154
0.000659057197
0.000659053853
0.000659052052
0.00065905209
0.000659054017
0.000659057683
0.000659062792
0.000659068943
0.000659075686
0.000659082523
0.000659088932
0.000659094373
0.000659098349
0.00065910048
0.000659100599
0.000659098833
0.000659095625
0.000659091684
0.000659087855
0.000659084944
0.000659083547
0.00065908393
0.000659086004
0.000659089406
0.000659093638
0.000659098235
0.000659102877
0.000659107432
0.000659111924
0.000659116467
0.000659121188
0.000659126177
0.000659131475
0.000659137087
0.000659143
0.0006591492
0.000659155678
0.00065916243
0.000659169452
0.000659176738
0.000659184275
0.000659192045
0.000659200024
0.000659208188
0.000659216504
0.000659224942
0.000659233463
0.000659242029
0.000659250602
0.000659259136
0.000659267586
0.000659275911
0.00065928406
0.000659291986
0.000659299644
0.000659306981
0.000659313948
0.000659320501
0.000659326583
0.000659332149
0.000659337174
0.00065933602
0.00065933034
0.000659323891
0.000659316679
0.000659308728
0.000659300067
0.000659290736
0.000659280776
0.000659270246
0.000659259205
0.000659247724
0.000659235877
0.000659223749
0.000659211422
0.000659198982
0.000659186523
0.000659174127
0.000659161878
0.000659149861
0.000659138148
0.000659126806
0.000659115899
0.000659105476
0.000659095582
0.000659086249
0.000659077506
0.000659069364
0.000659061837
0.000659054921
0.000659048611
0.000659042894
0.000659037757
0.000659033173
0.000659029119
0.000659025571
0.000659022496
0.000659019866
0.000659017652
0.000659015823
0.000659014347
0.000659013198
0.000659012344
0.000659011758
0.000659011412
0.000659011284
0.000659011348
0.000659011582
0.000659011968
0.000659012485
0.000659013116
0.000659013848
0.000659014664
0.00065901555
0.000659016498
0.000659017495
0.00065901853
0.000659019597
0.000659020687
0.000659021794
0.000659022915
0.000659023739
0.00065902384
0.000659023865
0.000659023995
0.000659024222
0.000659024541
0.000659024937
0.000659025401
0.000659025921
0.000659026491
0.0006590271
0.00065902774
0.00065902841
0.000659029101
0.000659029809
0.000659030536
0.000659031273
0.00065903202
0.000659032776
0.000659033536
0.000659034298
0.000659035059
0.00065903582
0.000659036576
0.000659037328
0.000659038072
0.000659038807
0.000659039532
0.000659040249
0.000659040952
0.000659041642
0.000659042322
0.000659042987
0.000659043637
0.000659044276
0.000659044898
0.000659045504
0.000659046097
0.000659046674
0.000659047235
0.000659047778
0.000659048308
0.00065904882
0.000659049314
0.000659049794
0.000659050256
0.000659050701
0.00065905113
0.000659051544
0.000659051927
0.000659065316
0.000659015902
0.000659024017
0.000659021241
0.000659020724
0.000659022522
0.000659026425
0.000659031964
0.000659038607
0.000659045894
0.000659053412
0.000659060653
0.00065906599
0.000659061649
0.000659058078
0.000659056212
0.000659056698
0.000659059756
0.000659059706
0.000659054116
0.000659049625
0.000659046923
0.000659046389
0.000659048096
0.000659051876
0.000659057387
0.000659064167
0.00065907169
0.00065907938
0.000659086626
0.000659092794
0.000659097282
0.000659099615
0.000659099553
0.000659097194
0.000659093025
0.000659087867
0.000659082729
0.00065907859
0.000659076192
0.000659075884
0.000659077586
0.000659080876
0.000659085163
0.000659089879
0.000659094623
0.000659099223
0.000659103704
0.000659108198
0.000659112864
0.000659117817
0.000659123113
0.000659128764
0.000659134756
0.000659141075
0.000659147713
0.000659154668
0.00065916194
0.000659169523
0.000659177406
0.000659185571
0.000659193996
0.000659202652
0.000659211509
0.000659220532
0.000659229682
0.000659238917
0.000659248196
0.000659257471
0.000659266691
0.000659275812
0.000659284778
0.000659293539
0.000659302045
0.000659310241
0.000659318076
0.000659325502
0.000659332463
0.000659338906
0.000659344774
0.000659343336
0.000659336972
0.000659329782
0.000659321775
0.000659312976
0.000659303415
0.000659293136
0.000659282186
0.000659270629
0.000659258531
0.000659245974
0.000659233041
0.00065921983
0.000659206435
0.000659192955
0.000659179496
0.000659166153
0.000659153023
0.000659140199
0.000659127763
0.00065911579
0.00065910435
0.000659093494
0.000659083268
0.000659073705
0.000659064831
0.000659056653
0.000659049179
0.0006590424
0.000659036303
0.000659030866
0.000659026068
0.000659021875
0.000659018254
0.000659015174
0.000659012593
0.000659010475
0.000659008787
0.000659007487
0.000659006541
0.000659005917
0.000659005579
0.000659005496
0.000659005638
0.000659005982
0.000659006498
0.000659007163
0.00065900796
0.000659008865
0.000659009862
0.000659010939
0.000659012077
0.000659013266
0.000659014497
0.000659015757
0.000659017037
0.000659018333
0.000659019633
0.000659020928
0.000659022069
0.000659022294
0.000659022264
0.000659022345
0.000659022531
0.000659022806
0.000659023168
0.000659023602
0.0006590241
0.000659024652
0.000659025255
0.000659025899
0.000659026578
0.000659027289
0.000659028023
0.000659028775
0.000659029544
0.000659030324
0.000659031111
0.000659031905
0.000659032701
0.000659033498
0.000659034292
0.000659035085
0.000659035871
0.000659036652
0.000659037425
0.000659038188
0.00065903894
0.000659039684
0.000659040414
0.00065904113
0.000659041836
0.000659042526
0.0006590432
0.000659043862
0.000659044508
0.000659045137
0.000659045752
0.00065904635
0.000659046931
0.000659047495
0.000659048044
0.000659048576
0.00065904909
0.000659049589
0.00065905007
0.000659050533
0.000659050982
0.000659051415
0.000659051818
0.00065906524
0.00065901526
0.000659022145
0.000659018302
0.000659016959
0.000659018234
0.000659021945
0.000659027611
0.000659034667
0.000659042617
0.000659051014
0.000659059288
0.000659066471
0.00065906167
0.000659057425
0.000659055256
0.000659055874
0.00065905949
0.000659059743
0.000659052989
0.000659047258
0.000659043396
0.000659041915
0.000659042972
0.000659046437
0.00065905197
0.000659059086
0.000659067215
0.000659075717
0.000659083893
0.000659090997
0.000659096293
0.00065909917
0.000659099279
0.000659096661
0.000659091814
0.000659085633
0.000659079265
0.000659073862
0.000659070332
0.000659069142
0.000659070262
0.000659073243
0.000659077413
0.000659082107
0.000659086841
0.000659091394
0.000659095781
0.00065910015
0.000659104687
0.00065910953
0.000659114752
0.000659120369
0.00065912637
0.000659132739
0.000659139471
0.000659146565
0.000659154023
0.000659161843
0.000659170014
0.00065917852
0.000659187336
0.000659196435
0.000659205782
0.000659215341
0.00065922507
0.000659234924
0.000659244858
0.000659254821
0.000659264761
0.000659274629
0.000659284371
0.000659293932
0.000659303261
0.000659312302
0.000659320998
0.000659329297
0.000659337141
0.000659344472
0.00065935124
0.000659349798
0.000659342754
0.000659334823
0.000659326016
0.000659316358
0.000659305884
0.000659294642
0.000659282683
0.000659270081
0.000659256909
0.000659243257
0.000659229221
0.000659214912
0.000659200434
0.000659185904
0.000659171438
0.000659157148
0.000659143143
0.000659129528
0.000659116395
0.000659103826
0.000659091897
0.000659080663
0.000659070171
0.000659060452
0.000659051528
0.000659043401
0.000659036073
0.000659029525
0.000659023735
0.000659018674
0.000659014309
0.000659010597
0.000659007494
0.000659004961
0.000659002948
0.000659001409
0.000659000305
0.000658999588
0.000658999217
0.000658999156
0.000658999366
0.000658999812
0.000659000462
0.000659001291
0.000659002268
0.000659003369
0.000659004577
0.000659005869
0.000659007227
0.000659008639
0.000659010089
0.000659011564
0.000659013057
0.000659014556
0.000659016051
0.00065901754
0.000659019013
0.000659020479
0.000659021006
0.000659020899
0.000659020909
0.000659021029
0.000659021253
0.000659021566
0.000659021965
0.000659022435
0.00065902297
0.000659023559
0.000659024198
0.000659024874
0.000659025583
0.000659026321
0.000659027082
0.00065902786
0.000659028656
0.000659029462
0.000659030276
0.000659031098
0.000659031922
0.000659032746
0.000659033567
0.000659034387
0.000659035199
0.000659036007
0.000659036804
0.000659037592
0.000659038368
0.000659039135
0.000659039888
0.000659040626
0.000659041352
0.000659042063
0.000659042758
0.00065904344
0.000659044105
0.000659044753
0.000659045388
0.000659046005
0.000659046606
0.000659047188
0.000659047757
0.000659048307
0.000659048839
0.000659049357
0.000659049856
0.000659050338
0.000659050805
0.000659051257
0.000659051673
0.000659065115
0.000659014609
0.000659020255
0.000659015343
0.000659013194
0.000659013998
0.000659017595
0.000659023476
0.000659031026
0.000659039697
0.000659048988
0.000659058241
0.000659066562
0.000659061596
0.000659056499
0.000659053826
0.000659054378
0.000659058366
0.00065905897
0.000659051001
0.000659044071
0.000659039171
0.000659036913
0.000659037515
0.000659040861
0.000659046595
0.000659054189
0.000659063013
0.000659072358
0.000659081439
0.000659089406
0.000659095409
0.000659098719
0.000659098883
0.000659095883
0.000659090222
0.00065908289
0.000659075187
0.000659068447
0.000659063742
0.000659061654
0.000659062191
0.000659064872
0.00065906894
0.000659073628
0.000659078366
0.000659082885
0.000659087184
0.000659091431
0.000659095839
0.000659100572
0.000659105723
0.000659111314
0.000659117337
0.000659123778
0.000659130631
0.000659137901
0.000659145592
0.000659153703
0.000659162227
0.000659171147
0.000659180439
0.000659190072
0.000659200012
0.000659210219
0.000659220649
0.000659231252
0.000659241981
0.00065925278
0.000659263592
0.000659274364
0.000659285034
0.000659295544
0.000659305839
0.000659315858
0.000659325542
0.000659334837
0.000659343679
0.000659352009
0.000659359765
0.000659358674
0.000659350932
0.000659342228
0.000659332573
0.000659321994
0.000659310524
0.000659298215
0.000659285122
0.000659271325
0.000659256908
0.000659241973
0.00065922663
0.000659211005
0.000659195221
0.000659179412
0.000659163715
0.000659148257
0.000659133164
0.000659118558
0.000659104542
0.00065909121
0.000659078643
0.000659066902
0.000659056033
0.000659046068
0.000659037023
0.000659028895
0.000659021676
0.000659015339
0.000659009852
0.000659005171
0.000659001254
0.000658998046
0.000658995493
0.000658993543
0.000658992138
0.000658991222
0.000658990748
0.000658990661
0.000658990913
0.000658991465
0.00065899227
0.000658993293
0.000658994498
0.000658995857
0.000658997338
0.000658998916
0.000659000574
0.000659002287
0.000659004039
0.000659005819
0.00065900761
0.000659009403
0.000659011192
0.000659012966
0.000659014718
0.000659016447
0.000659018139
0.000659019191
0.000659019098
0.00065901906
0.000659019143
0.000659019334
0.000659019626
0.000659020005
0.000659020465
0.000659020994
0.000659021584
0.000659022226
0.000659022917
0.000659023646
0.000659024406
0.000659025196
0.000659026006
0.000659026833
0.000659027675
0.000659028526
0.000659029381
0.000659030243
0.000659031105
0.000659031965
0.000659032821
0.000659033674
0.000659034519
0.000659035357
0.000659036185
0.000659037003
0.000659037807
0.000659038602
0.000659039382
0.000659040147
0.0006590409
0.000659041636
0.000659042355
0.000659043062
0.00065904375
0.000659044421
0.000659045077
0.000659045716
0.000659046337
0.00065904694
0.000659047528
0.000659048098
0.000659048649
0.000659049185
0.000659049704
0.000659050204
0.000659050688
0.000659051159
0.000659051595
0.000659065069
0.000659013952
0.000659018348
0.000659012351
0.000659009368
0.00065900966
0.0006590131
0.000659019159
0.00065902718
0.000659036573
0.000659046794
0.00065905712
0.000659066568
0.000659061564
0.000659055651
0.000659052561
0.000659053159
0.000659057638
0.000659058923
0.000659049726
0.000659041526
0.000659035471
0.000659032297
0.000659032298
0.000659035394
0.000659041225
0.000659049233
0.000659058738
0.000659068955
0.000659079007
0.000659087926
0.000659094731
0.000659098557
0.000659098848
0.000659095532
0.000659089123
0.000659080688
0.000659071667
0.000659063569
0.000659057635
0.000659054571
0.000659054436
0.000659056724
0.000659060601
0.000659065199
0.000659069865
0.000659074278
0.000659078425
0.000659082492
0.000659086717
0.000659091293
0.000659096329
0.000659101856
0.000659107868
0.000659114354
0.000659121309
0.000659128739
0.000659136654
0.000659145056
0.000659153938
0.000659163284
0.000659173068
0.000659183259
0.000659193818
0.000659204701
0.000659215859
0.000659227237
0.000659238782
0.000659250433
0.00065926213
0.000659273816
0.000659285428
0.000659296904
0.000659308188
0.000659319216
0.000659329927
0.000659340263
0.000659350158
0.000659359547
0.000659368367
0.000659368069
0.000659359625
0.000659350135
0.000659339608
0.000659328068
0.00065931555
0.00065930211
0.000659287807
0.000659272729
0.00065925697
0.000659240644
0.000659223878
0.000659206814
0.000659189598
0.000659172384
0.00065915533
0.000659138585
0.000659122297
0.000659106605
0.000659091628
0.000659077471
0.000659064225
0.000659051955
0.000659040709
0.000659030514
0.000659021383
0.000659013303
0.000659006257
0.000659000204
0.000658995099
0.000658990886
0.000658987507
0.000658984895
0.000658982982
0.000658981704
0.000658980991
0.000658980778
0.000658981009
0.000658981621
0.00065898256
0.00065898378
0.000658985232
0.000658986875
0.000658988672
0.000658990593
0.000658992606
0.000658994685
0.000658996812
0.000658998965
0.000659001127
0.000659003287
0.00065900543
0.000659007546
0.000659009629
0.00065901167
0.000659013662
0.000659015605
0.000659017135
0.000659017315
0.000659017221
0.000659017258
0.000659017416
0.000659017679
0.000659018041
0.000659018487
0.000659019012
0.000659019603
0.000659020253
0.000659020952
0.000659021696
0.000659022475
0.000659023283
0.000659024119
0.000659024974
0.000659025843
0.000659026727
0.000659027619
0.000659028514
0.000659029414
0.000659030312
0.000659031209
0.000659032099
0.000659032986
0.000659033863
0.000659034732
0.00065903559
0.000659036436
0.000659037267
0.000659038088
0.000659038893
0.000659039682
0.000659040458
0.000659041217
0.000659041959
0.000659042686
0.000659043396
0.000659044087
0.000659044764
0.000659045423
0.000659046064
0.000659046686
0.000659047294
0.000659047883
0.000659048453
0.000659049008
0.000659049544
0.000659050063
0.000659050566
0.000659051054
0.000659051504
0.000659064997
0.000659013287
0.000659016419
0.000659009325
0.000659005502
0.000659005288
0.000659008585
0.000659014848
0.000659023372
0.000659033519
0.00065904469
0.000659056091
0.000659066604
0.000659061382
0.000659054616
0.000659051058
0.000659051654
0.000659056599
0.000659058731
0.000659048302
0.000659038851
0.000659031673
0.00065902762
0.000659027061
0.000659029947
0.000659035913
0.000659044367
0.000659054573
0.000659065675
0.000659076704
0.000659086582
0.000659094196
0.000659098553
0.000659098977
0.000659095327
0.00065908812
0.000659078513
0.000659068099
0.000659058571
0.000659051347
0.000659047253
0.000659046401
0.00065904826
0.000659051914
0.000659056395
0.000659060963
0.000659065241
0.000659069205
0.000659073055
0.00065907706
0.000659081442
0.000659086326
0.000659091757
0.000659097733
0.000659104244
0.000659111289
0.000659118879
0.000659127026
0.000659135736
0.000659145005
0.000659154815
0.000659165141
0.000659175948
0.000659187193
0.000659198829
0.000659210802
0.000659223053
0.000659235524
0.000659248147
0.000659260855
0.000659273586
0.00065928627
0.000659298841
0.000659311238
0.000659323393
0.000659335243
0.000659346729
0.000659357781
0.000659368331
0.000659378311
0.00065937934
0.000659370182
0.000659359881
0.000659348443
0.000659335887
0.000659322246
0.000659307575
0.000659291938
0.000659275429
0.000659258154
0.000659240243
0.000659221842
0.000659203116
0.000659184237
0.000659165384
0.000659146745
0.000659128495
0.000659110807
0.000659093842
0.000659077739
0.000659062618
0.00065904858
0.000659035695
0.000659024011
0.000659013552
0.000659004323
0.000658996301
0.000658989454
0.000658983727
0.00065897906
0.000658975378
0.000658972608
0.000658970666
0.000658969469
0.00065896894
0.000658968995
0.000658969559
0.000658970565
0.000658971943
0.000658973631
0.000658975578
0.000658977729
0.000658980043
0.000658982478
0.000658985003
0.000658987585
0.000658990197
0.000658992822
0.000658995437
0.000658998026
0.00065900058
0.000659003087
0.000659005537
0.000659007929
0.000659010254
0.00065901251
0.000659014635
0.000659015145
0.000659015009
0.00065901502
0.000659015161
0.000659015418
0.000659015778
0.000659016234
0.000659016768
0.000659017377
0.000659018047
0.000659018773
0.000659019544
0.000659020358
0.000659021203
0.000659022075
0.000659022971
0.000659023883
0.000659024806
0.000659025742
0.000659026682
0.000659027623
0.000659028568
0.000659029508
0.000659030444
0.000659031373
0.000659032296
0.000659033208
0.000659034111
0.000659035001
0.000659035878
0.00065903674
0.000659037591
0.000659038424
0.000659039241
0.000659040044
0.000659040829
0.000659041596
0.000659042348
0.000659043081
0.000659043795
0.000659044494
0.000659045173
0.000659045835
0.000659046477
0.000659047104
0.000659047712
0.000659048301
0.000659048874
0.000659049429
0.000659049965
0.000659050486
0.000659050993
0.00065905146
0.000659064984
0.000659012613
0.000659014463
0.000659006254
0.000659001576
0.000659000843
0.000659003992
0.000659010461
0.000659019501
0.000659030427
0.000659042588
0.000659055111
0.000659066763
0.000659061192
0.000659053565
0.000659049558
0.000659050193
0.000659055644
0.000659058824
0.00065904713
0.00065903638
0.000659028027
0.000659023049
0.000659021892
0.000659024544
0.000659030639
0.000659039554
0.000659050496
0.000659062532
0.00065907459
0.000659085471
0.000659093926
0.000659098824
0.000659099383
0.000659095403
0.000659087408
0.000659076633
0.000659064814
0.000659053825
0.000659045258
0.000659040072
0.000659038434
0.000659039792
0.000659043154
0.000659047451
0.000659051853
0.000659055931
0.000659059647
0.000659063217
0.000659066942
0.000659071071
0.000659075754
0.000659081045
0.000659086948
0.000659093455
0.000659100571
0.00065910831
0.000659116689
0.000659125719
0.000659135397
0.000659145706
0.000659156617
0.000659168093
0.000659180087
0.000659192543
0.000659205402
0.000659218594
0.000659232055
0.000659245708
0.000659259482
0.000659273307
0.000659287111
0.000659300824
0.000659314383
0.000659327721
0.000659340771
0.000659353473
0.000659365758
0.000659377555
0.00065938879
0.000659391799
0.000659381935
0.00065937082
0.00065935845
0.000659344838
0.000659330014
0.00065931403
0.000659296953
0.000659278885
0.000659259942
0.000659240272
0.000659220043
0.000659199448
0.000659178688
0.000659157975
0.000659137533
0.000659117569
0.000659098289
0.000659079882
0.000659062509
0.000659046309
0.000659031395
0.000659017842
0.0006590057
0.000658994984
0.000658985692
0.000658977784
0.000658971213
0.000658965904
0.000658961775
0.000658958735
0.000658956688
0.000658955531
0.000658955164
0.000658955494
0.000658956423
0.000658957863
0.000658959736
0.000658961963
0.000658964476
0.000658967217
0.000658970128
0.000658973164
0.000658976281
0.000658979448
0.000658982631
0.000658985804
0.00065898895
0.000658992048
0.000658995084
0.000658998051
0.000659000936
0.000659003733
0.00065900644
0.000659009049
0.000659011561
0.000659012807
0.000659012632
0.000659012615
0.000659012745
0.000659012999
0.000659013366
0.000659013832
0.000659014387
0.000659015017
0.000659015718
0.000659016474
0.000659017281
0.000659018129
0.000659019014
0.000659019928
0.000659020865
0.000659021823
0.000659022794
0.000659023774
0.000659024763
0.000659025754
0.000659026744
0.000659027735
0.00065902872
0.000659029698
0.000659030667
0.000659031628
0.000659032576
0.000659033514
0.000659034437
0.000659035346
0.000659036238
0.000659037116
0.000659037977
0.00065903882
0.000659039648
0.000659040456
0.000659041246
0.000659042021
0.000659042776
0.000659043511
0.000659044231
0.000659044931
0.000659045613
0.000659046275
0.000659046922
0.000659047549
0.000659048157
0.000659048749
0.000659049322
0.000659049876
0.000659050414
0.000659050939
0.00065905142
0.000659064965
0.000659011929
0.000659012474
0.000659003129
0.000658997581
0.000658996323
0.000658999327
0.000659006014
0.000659015595
0.000659027332
0.000659040516
0.000659054192
0.000659067004
0.000659060934
0.00065905242
0.000659047945
0.000659048603
0.00065905456
0.000659058968
0.000659046007
0.000659033958
0.000659024432
0.000659018527
0.000659016774
0.000659019199
0.000659025434
0.000659034822
0.000659046517
0.000659059504
0.000659072615
0.000659084527
0.000659093855
0.00065909933
0.000659098645
0.000659095746
0.000659086936
0.000659074946
0.000659061664
0.000659049152
0.00065903918
0.00065903284
0.000659030356
0.000659031157
0.000659034174
0.000659038234
0.000659042419
0.000659046243
0.000659049652
0.000659052881
0.000659056261
0.000659060076
0.000659064496
0.000659069591
0.000659075372
0.000659081836
0.000659088993
0.000659096864
0.000659105472
0.00065911483
0.000659124938
0.000659135779
0.000659147322
0.000659159525
0.000659172335
0.00065918569
0.000659199521
0.000659213752
0.000659228308
0.000659243105
0.000659258062
0.000659273103
0.000659288146
0.000659303119
0.000659317955
0.000659332583
0.000659346939
0.000659360963
0.000659374585
0.000659387734
0.00065940034
0.000659406124
0.000659395559
0.000659383619
0.00065937029
0.000659355574
0.00065933949
0.000659322087
0.000659303431
0.00065928363
0.000659262813
0.000659241149
0.000659218832
0.000659196088
0.000659173155
0.000659150289
0.000659127754
0.000659105803
0.000659084678
0.000659064604
0.000659045773
0.000659028343
0.000659012442
0.000658998151
0.000658985517
0.000658974549
0.000658965228
0.000658957497
0.000658951285
0.000658946496
0.000658943021
0.000658940743
0.000658939545
0.0006589393
0.000658939887
0.000658941195
0.00065894311
0.000658945531
0.000658948368
0.000658951533
0.00065895495
0.000658958557
0.000658962291
0.000658966105
0.000658969953
0.000658973805
0.000658977624
0.000658981388
0.00065898508
0.000658988679
0.000658992175
0.000658995562
0.000658998829
0.000659001974
0.000659004998
0.000659007896
0.000659009747
0.000659009846
0.000659009827
0.000659009961
0.000659010235
0.000659010628
0.000659011127
0.000659011718
0.000659012393
0.000659013135
0.000659013942
0.000659014799
0.000659015701
0.000659016639
0.000659017609
0.000659018603
0.000659019615
0.000659020644
0.000659021681
0.000659022723
0.000659023771
0.000659024818
0.000659025861
0.000659026901
0.000659027932
0.000659028955
0.000659029966
0.000659030968
0.000659031954
0.000659032928
0.000659033885
0.000659034827
0.000659035751
0.000659036661
0.000659037551
0.000659038422
0.000659039278
0.000659040113
0.000659040929
0.000659041728
0.000659042506
0.000659043264
0.000659044006
0.000659044727
0.000659045429
0.000659046111
0.000659046776
0.000659047422
0.000659048048
0.000659048658
0.000659049249
0.00065904982
0.000659050376
0.000659050917
0.000659051416
0.000659064989
0.000659011233
0.000659010449
0.000658999947
0.000658993511
0.000658991718
0.000658994575
0.000659001494
0.000659011637
0.000659024216
0.000659038462
0.000659053332
0.00065906734
0.000659060626
0.000659051214
0.000659046273
0.000659046974
0.000659053463
0.000659059268
0.000659045013
0.000659031635
0.000659020905
0.000659014052
0.00065901169
0.000659013887
0.000659020275
0.000659030169
0.00065904266
0.000659056654
0.000659070872
0.000659083862
0.000659094097
0.000659099632
0.000659096086
0.000659095373
0.000659086772
0.000659073553
0.00065905878
0.0006590447
0.000659033265
0.000659025704
0.000659022303
0.000659022475
0.000659025074
0.000659028826
0.00065903272
0.000659036213
0.000659039236
0.000659042042
0.000659044996
0.000659048415
0.000659052498
0.000659057329
0.000659062929
0.000659069302
0.000659076465