/*--------------------------------*- C++ -*----------------------------------*\
| =========                 |                                                 |
| \\      /  F ield         | OpenFOAM: The Open Source CFD Toolbox           |
|  \\    /   O peration     | Version:  v2012                                 |
|   \\  /    A nd           | Website:  www.openfoam.com                      |
|    \\/     M anipulation  |                                                 |
\*---------------------------------------------------------------------------*/
FoamFile
{
    version     2.0;
    format      ascii;
    class       volVectorField;
    location    "2.29";
    object      U;
}
// * * * * * * * * * * * * * * * * * * * * * * * * * * * * * * * * * * * * * //

dimensions      [0 1 -1 0 0 0 0];


internalField   nonuniform List<vector> 
28416
(
(0.0999974726 1.54938755e-05 0)
(0.0999793716 4.47023606e-05 0)
(0.0999458963 7.02234806e-05 0)
(0.099900356 8.9277573e-05 0)
(0.099847578 9.93587562e-05 0)
(0.0997918442 9.95831373e-05 0)
(0.0997366954 9.07629831e-05 0)
(0.0996852371 7.43653522e-05 0)
(0.0996403412 5.16207899e-05 0)
(0.0996049232 2.36090933e-05 0)
(0.0995812375 -8.27454913e-06 0)
(0.0995665599 -4.19560578e-05 0)
(0.0995578783 -6.96907211e-05 0)
(0.0995553041 -8.47712598e-05 0)
(0.0995568236 -8.3542805e-05 0)
(0.0995587724 -6.51364317e-05 0)
(0.0995577711 -3.16611128e-05 0)
(0.0995514188 1.16091296e-05 0)
(0.0995349538 5.77881427e-05 0)
(0.0995045927 0.00010317957 0)
(0.0994621996 0.000144288712 0)
(0.0994111853 0.000177446184 0)
(0.0993543954 0.000200065919 0)
(0.0992946365 0.00021099212 0)
(0.0992348451 0.00021028589 0)
(0.0991777528 0.000199071543 0)
(0.0991257325 0.000179417879 0)
(0.0990807372 0.000154208712 0)
(0.09904412 0.000127034868 0)
(0.0990163671 0.000102047412 0)
(0.0989968324 8.36488594e-05 0)
(0.0989835849 7.59591506e-05 0)
(0.0989735321 8.21106866e-05 0)
(0.0989629225 0.00010350929 0)
(0.0989479429 0.000139256374 0)
(0.0989252387 0.000186119043 0)
(0.0988925483 0.0002391594 0)
(0.0988491665 0.000292786138 0)
(0.0987959217 0.00034199678 0)
(0.0987347767 0.000383437822 0)
(0.0986682091 0.000415939803 0)
(0.0985985575 0.000440380957 0)
(0.0985275271 0.00045898518 0)
(0.0984559801 0.00047436272 0)
(0.0983840175 0.000488663349 0)
(0.0983112565 0.000503109418 0)
(0.0982371602 0.000517974813 0)
(0.098161292 0.00053288466 0)
(0.0980834337 0.000547217759 0)
(0.0980035794 0.000560421014 0)
(0.0979218612 0.000572148421 0)
(0.0978384678 0.000582244902 0)
(0.0977535928 0.000590654232 0)
(0.0976674221 0.000597329429 0)
(0.0975801442 0.000602186627 0)
(0.0974919689 0.000605103148 0)
(0.097403139 0.000605938777 0)
(0.097313934 0.000604558545 0)
(0.0972246681 0.000600845972 0)
(0.0971356853 0.000594706444 0)
(0.0970473554 0.00058606546 0)
(0.0969600703 0.000574866214 0)
(0.0968742413 0.000561068487 0)
(0.0967902954 0.000544648811 0)
(0.0967086713 0.000525601252 0)
(0.0966298147 0.000503938464 0)
(0.096554174 0.000479693077 0)
(0.0964821965 0.000452919562 0)
(0.0964143263 0.000423696283 0)
(0.0963510041 0.000392127058 0)
(0.0962926684 0.000358341232 0)
(0.0962397574 0.000322491743 0)
(0.0961927098 0.000284750929 0)
(0.096151965 0.000245304231 0)
(0.0961179615 0.000204341546 0)
(0.0960911599 0.000162049962 0)
(0.0960720078 0.000118555387 0)
(0.0960607667 7.39358217e-05 0)
(0.096057191 2.83788957e-05 0)
(0.0960615099 -1.73028369e-05 0)
(0.0960749236 -6.28625136e-05 0)
(0.0960978732 -0.000108584007 0)
(0.0961300226 -0.000154328379 0)
(0.0961713109 -0.000199798682 0)
(0.0962217625 -0.000244733587 0)
(0.0962812554 -0.000288862294 0)
(0.0963495803 -0.000331892073 0)
(0.0964264683 -0.000373521845 0)
(0.0965115694 -0.000413443234 0)
(0.0966044493 -0.000451339762 0)
(0.0967046002 -0.000486892431 0)
(0.0968114494 -0.000519789876 0)
(0.0969243659 -0.000549740735 0)
(0.0970426682 -0.000576486325 0)
(0.097165631 -0.000599811332 0)
(0.0972924922 -0.000619550885 0)
(0.0974224606 -0.000635593853 0)
(0.0975547259 -0.00064788322 0)
(0.0976884694 -0.000656414682 0)
(0.0978228768 -0.00066123431 0)
(0.0979571501 -0.000662435668 0)
(0.0980905202 -0.000660156364 0)
(0.0982222568 -0.000654573868 0)
(0.0983516784 -0.000645900549 0)
(0.0984781589 -0.00063437796 0)
(0.0986011342 -0.000620270607 0)
(0.0987201053 -0.000603859429 0)
(0.0988346414 -0.000585435298 0)
(0.0989443801 -0.000565292785 0)
(0.0990490272 -0.00054372441 0)
(0.0991483544 -0.000521015548 0)
(0.0992421965 -0.00049744008 0)
(0.0993304469 -0.000473256783 0)
(0.0994130523 -0.000448706338 0)
(0.0994900061 -0.000424008711 0)
(0.0995613396 -0.000399360283 0)
(0.0996271187 -0.000374929034 0)
(0.0996874628 -0.000350852145 0)
(0.0997425473 -0.000327248094 0)
(0.0997925775 -0.0003042208 0)
(0.099837775 -0.000281859549 0)
(0.0998783714 -0.000260238848 0)
(0.0999146049 -0.000239418803 0)
(0.0999467172 -0.000219445823 0)
(0.0999749502 -0.00020035341 0)
(0.0999995424 -0.000182162617 0)
(0.100020727 -0.000164881102 0)
(0.100038733 -0.000148503152 0)
(0.10005379 -0.000133014991 0)
(0.100066123 -0.000118397811 0)
(0.100075948 -0.000104629258 0)
(0.100083474 -9.16839841e-05 0)
(0.100088898 -7.95336185e-05 0)
(0.100092411 -6.81464001e-05 0)
(0.100094191 -5.74865887e-05 0)
(0.100094412 -4.75129358e-05 0)
(0.100093242 -3.81740271e-05 0)
(0.100090853 -2.94077352e-05 0)
(0.100087443 -2.11560353e-05 0)
(0.100083266 -1.34102982e-05 0)
(0.100078645 -6.31559267e-06 0)
(0.100073735 -1.35191723e-07 0)
(0.100068117 5.0683908e-06 0)
(0.100061442 9.54554959e-06 0)
(0.100053849 1.34998499e-05 0)
(0.100045517 1.7052664e-05 0)
(0.100036615 2.02810822e-05 0)
(0.10002729 2.32304324e-05 0)
(0.100017646 2.59262715e-05 0)
(0.100007762 2.83859983e-05 0)
(0.0999977097 3.06196541e-05 0)
(0.0999875528 3.26304544e-05 0)
(0.0999773414 3.44189018e-05 0)
(0.0999671121 3.59868453e-05 0)
(0.099956892 3.73395617e-05 0)
(0.0999467031 3.84860257e-05 0)
(0.0999365642 3.94382609e-05 0)
(0.0999264926 4.02104139e-05 0)
(0.0999165043 4.08177704e-05 0)
(0.0999066151 4.127584e-05 0)
(0.0998968405 4.15996111e-05 0)
(0.0998871955 4.18029972e-05 0)
(0.0998776946 4.18984645e-05 0)
(0.0998683513 4.18968495e-05 0)
(0.0998591778 4.18073687e-05 0)
(0.0998501852 4.16377676e-05 0)
(0.0998413828 4.13945399e-05 0)
(0.0998327786 4.10831797e-05 0)
(0.0998243791 4.07084523e-05 0)
(0.0998161894 4.02746564e-05 0)
(0.0998082133 3.97858497e-05 0)
(0.0998004536 3.92460186e-05 0)
(0.0997929125 3.86591832e-05 0)
(0.0997855914 3.80294351e-05 0)
(0.0997784914 3.7360921e-05 0)
(0.0997716135 3.66577852e-05 0)
(0.0997649585 3.59240867e-05 0)
(0.0997585272 3.51636977e-05 0)
(0.0997523207 3.43802077e-05 0)
(0.09974634 3.35768585e-05 0)
(0.0997405862 3.27565189e-05 0)
(0.0997350603 3.19216732e-05 0)
(0.0997297643 3.10744546e-05 0)
(0.0997246978 3.02164836e-05 0)
(0.0997198693 2.93494895e-05 0)
(0.0997152586 2.8472308e-05 0)
(0.0997109498 2.75933631e-05 0)
(0.0997066797 2.66726321e-05 0)
(0.0997034431 2.58779354e-05 0)
(0.0996981381 2.43958573e-05 0)
(0.0999982245 3.2455551e-05 0)
(0.099983082 9.24431408e-05 0)
(0.0999515147 0.0001434579 0)
(0.0999055324 0.000181332768 0)
(0.0998503309 0.000202492299 0)
(0.0997909781 0.000205846681 0)
(0.0997316064 0.000192971043 0)
(0.0996757405 0.000166419759 0)
(0.0996265655 0.000128301691 0)
(0.0995867909 8.05414768e-05 0)
(0.0995576707 2.61214151e-05 0)
(0.0995411478 -2.93478127e-05 0)
(0.0995383594 -7.56809285e-05 0)
(0.0995462188 -0.000103639292 0)
(0.0995599837 -0.000106824039 0)
(0.0995744566 -8.32578944e-05 0)
(0.099583696 -3.58304701e-05 0)
(0.0995824259 2.8366951e-05 0)
(0.0995681354 9.96309946e-05 0)
(0.0995397647 0.000170093108 0)
(0.0994972015 0.000233068806 0)
(0.0994426858 0.000282939259 0)
(0.0993798579 0.000316102767 0)
(0.0993127171 0.000331149262 0)
(0.099245243 0.000328412825 0)
(0.0991811384 0.000309602783 0)
(0.0991236239 0.000277616317 0)
(0.0990753045 0.000236482553 0)
(0.099037991 0.000191394577 0)
(0.099012427 0.000148651462 0)
(0.0989979935 0.000115257821 0)
(0.0989925259 9.80385984e-05 0)
(0.0989923777 0.000102349905 0)
(0.0989927941 0.000130694178 0)
(0.0989885818 0.000181723198 0)
(0.098975004 0.000250220855 0)
(0.0989487169 0.000328164549 0)
(0.0989084245 0.000406500586 0)
(0.0988550031 0.000477214396 0)
(0.0987910671 0.000535070066 0)
(0.0987201294 0.000578457701 0)
(0.09864563 0.000609119846 0)
(0.0985701448 0.000630947882 0)
(0.0984949987 0.000648369839 0)
(0.0984203336 0.000664946956 0)
(0.0983455081 0.00068262213 0)
(0.0982696078 0.000701723906 0)
(0.0981918577 0.000721506489 0)
(0.0981118258 0.000740850268 0)
(0.0980294236 0.000758797525 0)
(0.0979447887 0.000774778294 0)
(0.0978581489 0.000788567529 0)
(0.0977697331 0.000800114722 0)
(0.0976797447 0.000809382765 0)
(0.0975883774 0.00081626605 0)
(0.0974958443 0.000820587207 0)
(0.0974023984 0.000822134456 0)
(0.0973083389 0.00082070119 0)
(0.097214008 0.000816108545 0)
(0.0971197827 0.000808210691 0)
(0.0970260686 0.000796891456 0)
(0.0969332947 0.000782060285 0)
(0.0968419101 0.000763650933 0)
(0.09675238 0.000741622571 0)
(0.0966651824 0.000715961599 0)
(0.0965808036 0.000686682881 0)
(0.0964997347 0.000653829962 0)
(0.0964224682 0.000617474411 0)
(0.0963494952 0.000577714526 0)
(0.096281304 0.000534673532 0)
(0.0962183774 0.000488497398 0)
(0.0961611917 0.000439352482 0)
(0.0961102142 0.00038742262 0)
(0.0960658991 0.000332906586 0)
(0.0960286869 0.000276014836 0)
(0.0959989679 0.00021696396 0)
(0.0959770675 0.000155949714 0)
(0.0959633314 9.31826961e-05 0)
(0.095958425 2.9013943e-05 0)
(0.095962758 -3.59743632e-05 0)
(0.0959762787 -0.000101345399 0)
(0.0959992333 -0.000167012455 0)
(0.0960318861 -0.000232682994 0)
(0.0960742825 -0.000297947856 0)
(0.0961264103 -0.000362416607 0)
(0.0961881865 -0.000425675187 0)
(0.0962594352 -0.000487273045 0)
(0.0963398945 -0.000546744157 0)
(0.096429213 -0.000603617695 0)
(0.0965269467 -0.00065742503 0)
(0.0966325644 -0.000707710812 0)
(0.0967454542 -0.000754045127 0)
(0.0968649299 -0.000796034776 0)
(0.0969902388 -0.00083333371 0)
(0.0971205706 -0.000865652467 0)
(0.0972550676 -0.000892766043 0)
(0.0973928367 -0.000914519899 0)
(0.0975329621 -0.000930833855 0)
(0.0976745209 -0.000941703614 0)
(0.0978165975 -0.000947199857 0)
(0.0979582992 -0.000947465028 0)
(0.0980987699 -0.000942708069 0)
(0.0982372027 -0.000933197471 0)
(0.0983728505 -0.000919253024 0)
(0.0985050345 -0.000901236667 0)
(0.0986331503 -0.000879542817 0)
(0.0987566723 -0.000854588552 0)
(0.0988751553 -0.000826803987 0)
(0.0989882346 -0.000796623166 0)
(0.0990956244 -0.000764475701 0)
(0.0991971145 -0.000730779363 0)
(0.0992925656 -0.000695933713 0)
(0.0993819043 -0.000660314807 0)
(0.099465116 -0.000624270796 0)
(0.0995422389 -0.000588118154 0)
(0.0996133576 -0.000552137807 0)
(0.0996785995 -0.000516569643 0)
(0.0997381348 -0.000481611092 0)
(0.0997921712 -0.000447432319 0)
(0.0998409429 -0.000414181634 0)
(0.0998847012 -0.000381985282 0)
(0.099923708 -0.000350947122 0)
(0.0999582312 -0.000321149162 0)
(0.099988541 -0.000292652695 0)
(0.100014907 -0.000265499666 0)
(0.100037595 -0.000239713844 0)
(0.100056869 -0.000215301101 0)
(0.100072982 -0.000192250492 0)
(0.100086178 -0.000170538709 0)
(0.100096691 -0.000150133044 0)
(0.100104746 -0.000130993235 0)
(0.100110558 -0.000113072774 0)
(0.100114333 -9.63200636e-05 0)
(0.100116268 -8.06795929e-05 0)
(0.100116554 -6.60933531e-05 0)
(0.100115379 -5.25033221e-05 0)
(0.100112934 -3.98568946e-05 0)
(0.100109398 -2.81106986e-05 0)
(0.100104909 -1.72381634e-05 0)
(0.100099486 -7.23806459e-06 0)
(0.100093142 1.88627276e-06 0)
(0.100086128 9.9703176e-06 0)
(0.100078617 1.69041611e-05 0)
(0.100070567 2.2904948e-05 0)
(0.100061966 2.8169525e-05 0)
(0.100052851 3.28308336e-05 0)
(0.100043302 3.6976007e-05 0)
(0.100033406 4.06586963e-05 0)
(0.100023238 4.391944e-05 0)
(0.100012861 4.67980223e-05 0)
(0.100002329 4.93304681e-05 0)
(0.0999916957 5.15453371e-05 0)
(0.0999810091 5.3464697e-05 0)
(0.0999703106 5.51068383e-05 0)
(0.0999596352 5.64882935e-05 0)
(0.0999490124 5.76247783e-05 0)
(0.0999384672 5.85317438e-05 0)
(0.0999280204 5.92247778e-05 0)
(0.0999176899 5.97196916e-05 0)
(0.0999074913 6.00322826e-05 0)
(0.0998974383 6.0178005e-05 0)
(0.0998875433 6.01717086e-05 0)
(0.0998778176 6.00274293e-05 0)
(0.0998682713 5.97581972e-05 0)
(0.0998589136 5.93759097e-05 0)
(0.0998497526 5.88913084e-05 0)
(0.0998407955 5.83140357e-05 0)
(0.0998320485 5.76527326e-05 0)
(0.0998235168 5.69151595e-05 0)
(0.0998152044 5.6108325e-05 0)
(0.0998071149 5.52386109e-05 0)
(0.0997992507 5.43118853e-05 0)
(0.0997916138 5.33335944e-05 0)
(0.0997842058 5.23088306e-05 0)
(0.0997770276 5.12423759e-05 0)
(0.0997700801 5.01387194e-05 0)
(0.0997633638 4.9002061e-05 0)
(0.099756879 4.78363048e-05 0)
(0.0997506262 4.66450399e-05 0)
(0.0997446055 4.54315121e-05 0)
(0.0997388174 4.41986004e-05 0)
(0.0997332621 4.29487826e-05 0)
(0.0997279407 4.16841444e-05 0)
(0.0997228518 4.04061327e-05 0)
(0.0997180033 3.91162404e-05 0)
(0.0997133723 3.78123495e-05 0)
(0.0997090431 3.65038474e-05 0)
(0.0997047361 3.5139827e-05 0)
(0.0997014653 3.39425198e-05 0)
(0.0996959686 3.18178799e-05 0)
(0.0999978468 3.97630561e-05 0)
(0.0999814018 0.000113133468 0)
(0.0999491968 0.000175190541 0)
(0.0999034867 0.00022145389 0)
(0.0998490644 0.000248127428 0)
(0.0997906387 0.000254001161 0)
(0.0997321408 0.000240818348 0)
(0.0996769645 0.000211454423 0)
(0.0996282 0.000168310571 0)
(0.0995886434 0.000113688077 0)
(0.0995606683 5.1664332e-05 0)
(0.0995449297 -9.92308618e-06 0)
(0.0995402989 -6.20962378e-05 0)
(0.0995450032 -9.5496369e-05 0)
(0.0995556578 -0.000102535019 0)
(0.0995671798 -8.03668939e-05 0)
(0.099574425 -3.15420325e-05 0)
(0.0995730215 3.73508279e-05 0)
(0.0995594093 0.000117091397 0)
(0.0995318451 0.000197101217 0)
(0.0994909653 0.000268410803 0)
(0.0994389579 0.000324513104 0)
(0.0993789407 0.00036136987 0)
(0.0993144993 0.000377325086 0)
(0.0992493398 0.000372755484 0)
(0.0991870002 0.000349621013 0)
(0.0991306395 0.000311168556 0)
(0.0990828781 0.000261864698 0)
(0.0990455995 0.000207474984 0)
(0.0990196707 0.000155054664 0)
(0.099004639 0.000112546279 0)
(0.0989985132 8.77967276e-05 0)
(0.098997776 8.7087244e-05 0)
(0.0989977741 0.000113575648 0)
(0.0989934718 0.000166174677 0)
(0.0989803387 0.000239342702 0)
(0.0989551503 0.000324051884 0)
(0.0989165418 0.000409775404 0)
(0.0988651486 0.000486949789 0)
(0.0988032591 0.000549145188 0)
(0.0987340785 0.000594232193 0)
(0.0986608408 0.000624190344 0)
(0.098586054 0.000643723367 0)
(0.0985110985 0.000658294753 0)
(0.0984362436 0.000672360212 0)
(0.0983609856 0.000688383265 0)
(0.0982845121 0.000706799068 0)
(0.0982060939 0.000726672648 0)
(0.0981252956 0.000746582675 0)
(0.0980419977 0.000765310847 0)
(0.0979563012 0.000782140279 0)
(0.097868407 0.000796806161 0)
(0.0977785314 0.000809276373 0)
(0.0976868777 0.000819539661 0)
(0.0975936466 0.000827495164 0)
(0.0974990614 0.000832945102 0)
(0.0974033871 0.000835642112 0)
(0.0973069368 0.000835340783 0)
(0.0972100686 0.000831827392 0)
(0.0971131787 0.000824926923 0)
(0.0970166947 0.000814498386 0)
(0.0969210702 0.000800429004 0)
(0.0968267805 0.000782631817 0)
(0.0967343186 0.000761046361 0)
(0.0966441903 0.00073564031 0)
(0.0965569089 0.000706410601 0)
(0.0964729898 0.000673383748 0)
(0.0963929462 0.000636615758 0)
(0.0963172859 0.000596191919 0)
(0.0962465088 0.000552226238 0)
(0.0961811077 0.000504860228 0)
(0.0961215679 0.000454260668 0)
(0.096068368 0.000400616368 0)
(0.0960219781 0.000344135218 0)
(0.0959828568 0.000285042296 0)
(0.0959514488 0.000223577995 0)
(0.0959281963 0.00016002726 0)
(0.0959135237 9.47220423e-05 0)
(0.0959075532 2.7998049e-05 0)
(0.0959105444 -3.99992291e-05 0)
(0.095923124 -0.00010896163 0)
(0.0959456112 -0.000178483014 0)
(0.0959780875 -0.000248213961 0)
(0.0960206323 -0.000317751393 0)
(0.0960732835 -0.000386645739 0)
(0.0961359842 -0.000454421001 0)
(0.0962085784 -0.000520573814 0)
(0.0962908191 -0.000584580407 0)
(0.0963823643 -0.00064590573 0)
(0.0964827723 -0.000704011884 0)
(0.0965915039 -0.000758369473 0)
(0.0967079262 -0.000808471786 0)
(0.0968313184 -0.000853850109 0)
(0.0969608795 -0.00089408894 0)
(0.097095739 -0.00092883974 0)
(0.0972349699 -0.000957831835 0)
(0.0973776037 -0.000980879857 0)
(0.0975226472 -0.000997887725 0)
(0.0976690996 -0.00100884949 0)
(0.0978159705 -0.00101384739 0)
(0.097962297 -0.0010130476 0)
(0.0981071594 -0.00100669363 0)
(0.0982496951 -0.000995097995 0)
(0.0983891106 -0.000978632204 0)
(0.0985246908 -0.000957715651 0)
(0.0986558053 -0.000932803873 0)
(0.098781913 -0.000904376661 0)
(0.0989025629 -0.000872926511 0)
(0.0990173938 -0.000838947805 0)
(0.0991261314 -0.000802927008 0)
(0.0992285842 -0.000765334093 0)
(0.0993246372 -0.000726615325 0)
(0.0994142457 -0.000687187385 0)
(0.0994974281 -0.000647432723 0)
(0.0995742581 -0.00060769606 0)
(0.0996448582 -0.000568281894 0)
(0.0997093934 -0.000529453267 0)
(0.099768066 -0.00049143336 0)
(0.0998211098 -0.000454410578 0)
(0.0998687827 -0.000418542141 0)
(0.0999113586 -0.000383956029 0)
(0.099949121 -0.00035075268 0)
(0.0999823579 -0.000319006922 0)
(0.100011358 -0.000288770101 0)
(0.100036406 -0.000260072305 0)
(0.100057782 -0.000232924724 0)
(0.100075761 -0.000207322687 0)
(0.100090605 -0.000183248615 0)
(0.100102569 -0.000160673112 0)
(0.100111896 -0.000139557213 0)
(0.10011882 -0.000119854852 0)
(0.100123561 -0.000101514936 0)
(0.100126329 -8.4482947e-05 0)
(0.10012732 -6.87024455e-05 0)
(0.100126717 -5.41172388e-05 0)
(0.100124686 -4.06757606e-05 0)
(0.100121379 -2.83390844e-05 0)
(0.100116935 -1.70797897e-05 0)
(0.100111505 -6.8621046e-06 0)
(0.100105306 2.42681706e-06 0)
(0.100098472 1.08746635e-05 0)
(0.100091034 1.85762925e-05 0)
(0.100083012 2.54927831e-05 0)
(0.100074412 3.16370823e-05 0)
(0.100065272 3.70628695e-05 0)
(0.100055649 4.18486631e-05 0)
(0.100045619 4.60702436e-05 0)
(0.100035273 4.9788678e-05 0)
(0.100024703 5.3050602e-05 0)
(0.100013979 5.5891573e-05 0)
(0.100003163 5.83418298e-05 0)
(0.0999922999 6.04296056e-05 0)
(0.0999814289 6.21814567e-05 0)
(0.0999705801 6.36226725e-05 0)
(0.0999597775 6.47779472e-05 0)
(0.099949042 6.56713037e-05 0)
(0.0999383923 6.63256187e-05 0)
(0.0999278461 6.67622293e-05 0)
(0.0999174197 6.70009679e-05 0)
(0.0999071284 6.70602995e-05 0)
(0.0998969866 6.69573292e-05 0)
(0.0998870078 6.67077294e-05 0)
(0.0998772042 6.63256969e-05 0)
(0.0998675869 6.58240014e-05 0)
(0.0998581655 6.52140823e-05 0)
(0.0998489484 6.45061506e-05 0)
(0.0998399427 6.37093082e-05 0)
(0.0998311541 6.28316961e-05 0)
(0.0998225872 6.18806549e-05 0)
(0.0998142455 6.0862879e-05 0)
(0.0998061315 5.97845521e-05 0)
(0.0997982471 5.86514538e-05 0)
(0.0997905934 5.74690306e-05 0)
(0.0997831711 5.62424314e-05 0)
(0.0997759806 5.49765162e-05 0)
(0.0997690221 5.36758436e-05 0)
(0.0997622959 5.2344651e-05 0)
(0.099755802 5.09868333e-05 0)
(0.0997495407 4.96059168e-05 0)
(0.0997435123 4.82050273e-05 0)
(0.099737717 4.67868668e-05 0)
(0.0997321549 4.53536811e-05 0)
(0.0997268268 4.39072727e-05 0)
(0.0997217311 4.2448785e-05 0)
(0.0997168749 4.09793688e-05 0)
(0.0997122352 3.94967814e-05 0)
(0.0997078942 3.80105587e-05 0)
(0.0997035791 3.64687258e-05 0)
(0.0997002954 3.51121016e-05 0)
(0.0996948755 3.27497969e-05 0)
(0.0999980442 5.05647021e-05 0)
(0.0999822999 0.0001446928 0)
(0.0999503908 0.000225132695 0)
(0.0999040812 0.000285640818 0)
(0.0998480734 0.000321016155 0)
(0.0997873016 0.000329529992 0)
(0.0997260886 0.000313311071 0)
(0.0996682445 0.000276022304 0)
(0.0996172411 0.000220791765 0)
(0.0995761947 0.000150617829 0)
(0.0995476177 7.05403204e-05 0)
(0.099532876 -1.08139897e-05 0)
(0.0995315596 -8.08991794e-05 0)
(0.0995413709 -0.000126152292 0)
(0.0995581001 -0.000136978895 0)
(0.0995760243 -0.000109726005 0)
(0.0995891443 -4.75205564e-05 0)
(0.0995921385 4.05305631e-05 0)
(0.0995810908 0.000141927776 0)
(0.0995542538 0.000243907475 0)
(0.0995122542 0.000335157011 0)
(0.0994575595 0.000407107185 0)
(0.0993937565 0.000454483381 0)
(0.099324997 0.000475166286 0)
(0.0992555719 0.000469636017 0)
(0.0991895761 0.000440357631 0)
(0.0991306554 0.000391387624 0)
(0.0990817951 0.000328300373 0)
(0.0990450809 0.000258326717 0)
(0.0990214009 0.000190387778 0)
(0.0990101401 0.00013461588 0)
(0.0990089984 0.000101110589 0)
(0.099014085 9.80417146e-05 0)
(0.0990203273 0.000129583218 0)
(0.0990221411 0.000194409832 0)
(0.0990143547 0.000285455338 0)
(0.0989932137 0.000391199783 0)
(0.0989570968 0.000498235323 0)
(0.0989066836 0.000594407409 0)
(0.0988445408 0.000671561232 0)
(0.0987742723 0.000727006984 0)
(0.0986995136 0.000763269258 0)
(0.0986230861 0.000786333818 0)
(0.0985465503 0.000803162299 0)
(0.0984702236 0.000819450187 0)
(0.0983935539 0.000838369116 0)
(0.0983156298 0.000860507914 0)
(0.0982356172 0.000884698104 0)
(0.0981529958 0.000909133691 0)
(0.09806759 0.000932252073 0)
(0.0979794704 0.000953122408 0)
(0.0978888237 0.000971391405 0)
(0.0977958608 0.00098700899 0)
(0.0977007838 0.000999959074 0)
(0.0976037962 0.00101011632 0)
(0.0975051294 0.00101723357 0)
(0.0974050624 0.00102099973 0)
(0.0973039289 0.00102110448 0)
(0.0972021138 0.00101727624 0)
(0.0971000447 0.00100929161 0)
(0.0969981839 0.000996969879 0)
(0.0968970221 0.000980166036 0)
(0.0967970728 0.000958768199 0)
(0.0966988675 0.000932699034 0)
(0.0966029505 0.000901918355 0)
(0.0965098745 0.00086642463 0)
(0.0964201967 0.000826254541 0)
(0.0963344753 0.000781480825 0)
(0.0962532667 0.000732209007 0)
(0.0961771217 0.000678573711 0)
(0.096106582 0.000620735251 0)
(0.0960421766 0.000558876953 0)
(0.0959844184 0.000493203335 0)
(0.0959338027 0.000423939047 0)
(0.0958908064 0.000351329035 0)
(0.0958558871 0.000275638564 0)
(0.0958294735 0.000197151546 0)
(0.0958119793 0.000116161111 0)
(0.095803887 3.29816924e-05 0)
(0.0958056025 -5.18270614e-05 0)
(0.0958173761 -0.000137810108 0)
(0.0958394809 -0.000224579368 0)
(0.0958721563 -0.000311656026 0)
(0.0959155512 -0.000398500539 0)
(0.0959697359 -0.000484538897 0)
(0.0960346932 -0.000569160876 0)
(0.0961103061 -0.000651718638 0)
(0.0961963505 -0.000731537543 0)
(0.0962924887 -0.000807930956 0)
(0.0963982648 -0.000880214744 0)
(0.0965131048 -0.000947723191 0)
(0.0966363207 -0.00100982602 0)
(0.0967671177 -0.00106594507 0)
(0.0969046046 -0.00111557018 0)
(0.0970478076 -0.00115827374 0)
(0.0971956858 -0.00119372343 0)
(0.0973471501 -0.00122169222 0)
(0.0975010829 -0.0012420649 0)
(0.0976563592 -0.00125484074 0)
(0.0978118682 -0.00126013204 0)
(0.0979665337 -0.00125815882 0)
(0.0981193331 -0.00124924011 0)
(0.098269314 -0.00123378256 0)
(0.098415608 -0.00121226689 0)
(0.0985574407 -0.00118523308 0)
(0.0986941394 -0.00115326497 0)
(0.0988251363 -0.00111697474 0)
(0.0989499696 -0.00107698812 0)
(0.0990682814 -0.0010339306 0)
(0.0991798136 -0.000988415119 0)
(0.0992844013 -0.000941031422 0)
(0.0993819659 -0.000892337233 0)
(0.0994725061 -0.000842851294 0)
(0.0995560891 -0.000793048132 0)
(0.0996328415 -0.000743354523 0)
(0.0997029406 -0.000694147543 0)
(0.0997666062 -0.00064575415 0)
(0.0998240933 -0.000598452549 0)
(0.0998756846 -0.000552475335 0)
(0.0999216832 -0.000508013167 0)
(0.099962405 -0.000465218148 0)
(0.0999981728 -0.000424207006 0)
(0.100029311 -0.000385064298 0)
(0.10005614 -0.000347845715 0)
(0.100078977 -0.000312581483 0)
(0.100098127 -0.000279279779 0)
(0.100113887 -0.000247930025 0)
(0.100126538 -0.000218505677 0)
(0.100136349 -0.00019096633 0)
(0.100143573 -0.00016525982 0)
(0.100148449 -0.000141324417 0)
(0.100151203 -0.000119090988 0)
(0.100152045 -9.84850732e-05 0)
(0.100151175 -7.94286539e-05 0)
(0.100148778 -6.18410231e-05 0)
(0.100145022 -4.56376874e-05 0)
(0.100140071 -3.07275703e-05 0)
(0.1001341 -1.70263947e-05 0)
(0.100127346 -4.53593527e-06 0)
(0.100119889 6.78860234e-06 0)
(0.100111721 1.6995398e-05 0)
(0.100102946 2.6145711e-05 0)
(0.100093644 3.42834096e-05 0)
(0.10008388 4.14871478e-05 0)
(0.100073717 4.78432775e-05 0)
(0.100063217 5.34417769e-05 0)
(0.10005244 5.83675516e-05 0)
(0.10004144 6.26917104e-05 0)
(0.100030263 6.64725695e-05 0)
(0.100018952 6.97597283e-05 0)
(0.100007553 7.25952886e-05 0)
(0.0999961163 7.50139399e-05 0)
(0.0999846858 7.7044659e-05 0)
(0.0999733009 7.87133153e-05 0)
(0.0999619952 8.00446461e-05 0)
(0.0999507961 8.10629363e-05 0)
(0.0999397255 8.17921103e-05 0)
(0.0999288007 8.22558695e-05 0)
(0.0999180362 8.24773882e-05 0)
(0.0999074444 8.24788183e-05 0)
(0.0998970359 8.22809698e-05 0)
(0.0998868199 8.19031323e-05 0)
(0.0998768041 8.13629948e-05 0)
(0.0998669956 8.06766871e-05 0)
(0.0998574006 7.98588761e-05 0)
(0.0998480245 7.89228566e-05 0)
(0.0998388722 7.78806451e-05 0)
(0.0998299478 7.67430857e-05 0)
(0.0998212547 7.55199606e-05 0)
(0.0998127959 7.42200939e-05 0)
(0.0998045735 7.28514545e-05 0)
(0.0997965894 7.14212556e-05 0)
(0.0997888449 6.99360503e-05 0)
(0.0997813407 6.84018135e-05 0)
(0.0997740772 6.68240111e-05 0)
(0.0997670545 6.52076521e-05 0)
(0.0997602724 6.35573167e-05 0)
(0.0997537304 6.18771633e-05 0)
(0.0997474279 6.01709249e-05 0)
(0.0997413643 5.84419058e-05 0)
(0.0997355389 5.66929796e-05 0)
(0.0997299509 5.49265649e-05 0)
(0.0997246003 5.31446517e-05 0)
(0.0997194843 5.13485684e-05 0)
(0.0997146097 4.95398094e-05 0)
(0.0997099512 4.77161254e-05 0)
(0.0997055926 4.58895549e-05 0)
(0.0997012461 4.39998392e-05 0)
(0.0996979436 4.23372782e-05 0)
(0.0996923589 3.94736313e-05 0)
(0.0999980143 6.05545553e-05 0)
(0.0999821038 0.000173399197 0)
(0.0999499354 0.000269960861 0)
(0.0999033346 0.000343038313 0)
(0.0998470736 0.000386733702 0)
(0.0997860808 0.000399058485 0)
(0.0997246105 0.000382351336 0)
(0.0996664207 0.000340701382 0)
(0.0996149756 0.0002776418 0)
(0.0995733854 0.000196622686 0)
(0.0995440615 0.00010352872 0)
(0.0995283945 8.67245638e-06 0)
(0.0995266491 -7.35806198e-05 0)
(0.0995365156 -0.000128570343 0)
(0.0995532496 -0.000144787158 0)
(0.0995712454 -0.000117512821 0)
(0.0995844819 -4.99825923e-05 0)
(0.0995876941 4.7798806e-05 0)
(0.0995773659 0.000161823543 0)
(0.0995519145 0.000277226209 0)
(0.0995116717 0.000380793832 0)
(0.0994587388 0.000462500012 0)
(0.0993964977 0.000516133697 0)
(0.0993290158 0.000539128756 0)
(0.099260552 0.000531909998 0)
(0.0991952049 0.0004971636 0)
(0.0991366645 0.000439369603 0)
(0.0990880066 0.000364738991 0)
(0.0990514547 0.000281424576 0)
(0.0990280722 0.000199615071 0)
(0.0990174318 0.000131027867 0)
(0.0990173814 8.74952346e-05 0)
(0.099024037 7.87504553e-05 0)
(0.0990321638 0.000109998578 0)
(0.099036018 0.000180113946 0)
(0.0990303809 0.000281216225 0)
(0.0990114648 0.000400040141 0)
(0.0989775427 0.000520885691 0)
(0.0989291398 0.000629332304 0)
(0.0988686827 0.000715563152 0)
(0.0987996952 0.000776214665 0)
(0.0987258037 0.000814180673 0)
(0.0986498733 0.0008365798 0)
(0.098573527 0.00085178885 0)
(0.0984971323 0.000866721132 0)
(0.0984201578 0.000885267214 0)
(0.0983416846 0.000908185203 0)
(0.0982608529 0.000934079336 0)
(0.0981771121 0.000960756493 0)
(0.0980902608 0.000986306767 0)
(0.098000352 0.00100958878 0)
(0.0979075626 0.00103017204 0)
(0.0978121004 0.00104800431 0)
(0.0977141688 0.00106308033 0)
(0.097613978 0.00107526286 0)
(0.0975117713 0.00108426426 0)
(0.0974078453 0.00108971622 0)
(0.0973025578 0.00109124912 0)
(0.097196323 0.0010885392 0)
(0.0970896036 0.00108132067 0)
(0.0969829018 0.00106937914 0)
(0.0968767523 0.00105254271 0)
(0.0967717165 0.00103067811 0)
(0.0966683761 0.0010036913 0)
(0.0965673269 0.00097152929 0)
(0.0964691711 0.000934180822 0)
(0.0963745098 0.000891675253 0)
(0.096283936 0.000844080491 0)
(0.0961980297 0.000791500643 0)
(0.096117356 0.000734073562 0)
(0.0960424655 0.000671968234 0)
(0.0959738964 0.000605381843 0)
(0.0959121765 0.000534536679 0)
(0.0958578236 0.000459677853 0)
(0.0958113438 0.000381072307 0)
(0.0957732279 0.000299009423 0)
(0.0957439507 0.000213807145 0)
(0.0957239637 0.000125822428 0)
(0.0957136724 3.54371646e-05 0)
(0.095713476 -5.70110225e-05 0)
(0.0957237996 -0.0001510852 0)
(0.0957450065 -0.000246296506 0)
(0.0957773696 -0.000342118525 0)
(0.0958210858 -0.00043796108 0)
(0.0958762733 -0.000533173924 0)
(0.0959429564 -0.000627054844 0)
(0.0960210509 -0.000718855413 0)
(0.0961103559 -0.000807790705 0)
(0.0962105448 -0.000893052824 0)
(0.096321159 -0.000973827141 0)
(0.096441604 -0.00104931187 0)
(0.0965711506 -0.00111874043 0)
(0.0967089412 -0.00118140483 0)
(0.0968539993 -0.00123667835 0)
(0.0970052458 -0.00128403591 0)
(0.0971615182 -0.00132307086 0)
(0.0973215938 -0.00135350716 0)
(0.0974842158 -0.00137520684 0)
(0.0976481191 -0.00138817236 0)
(0.0978120576 -0.00139254418 0)
(0.0979748285 -0.00138859355 0)
(0.0981352958 -0.0013767114 0)
(0.0982924094 -0.00135739354 0)
(0.098445221 -0.00133122347 0)
(0.0985928956 -0.00129885349 0)
(0.0987347191 -0.00126098509 0)
(0.0988701016 -0.00121834967 0)
(0.0989985768 -0.00117169009 0)
(0.0991197982 -0.00112174395 0)
(0.0992335332 -0.00106922879 0)
(0.0993396542 -0.00101482963 0)
(0.0994381288 -0.000959188935 0)
(0.0995290088 -0.000902898965 0)
(0.0996124194 -0.000846496442 0)
(0.0996885475 -0.000790459327 0)
(0.0997576314 -0.000735205576 0)
(0.099819951 -0.000681093617 0)
(0.099875818 -0.000628424499 0)
(0.0999255679 -0.000577445399 0)
(0.0999695518 -0.000528353855 0)
(0.100008129 -0.000481302201 0)
(0.100041662 -0.000436401946 0)
(0.100070508 -0.000393728072 0)
(0.100095019 -0.000353323198 0)
(0.100115535 -0.000315201581 0)
(0.100132384 -0.000279352897 0)
(0.100145879 -0.000245745837 0)
(0.100156317 -0.000214331609 0)
(0.100163984 -0.000185047395 0)
(0.100169147 -0.000157819745 0)
(0.100172057 -0.000132567762 0)
(0.100172952 -0.000109205789 0)
(0.10017205 -8.7645535e-05 0)
(0.100169555 -6.77979793e-05 0)
(0.100165658 -4.95754925e-05 0)
(0.100160538 -3.28942539e-05 0)
(0.100154344 -1.767101e-05 0)
(0.100147111 -3.79475801e-06 0)
(0.100138941 8.88508463e-06 0)
(0.10013011 2.0314114e-05 0)
(0.10012077 3.05703823e-05 0)
(0.100110948 3.97324845e-05 0)
(0.100100684 4.78748894e-05 0)
(0.10009003 5.5076644e-05 0)
(0.100079042 6.14124556e-05 0)
(0.100067771 6.6954449e-05 0)
(0.100056273 7.17702653e-05 0)
(0.100044609 7.59211665e-05 0)
(0.100032844 7.94653046e-05 0)
(0.100021032 8.24596783e-05 0)
(0.100009215 8.49584568e-05 0)
(0.0999974247 8.70111478e-05 0)