/*--------------------------------*- C++ -*----------------------------------*\
| =========                 |                                                 |
| \\      /  F ield         | OpenFOAM: The Open Source CFD Toolbox           |
|  \\    /   O peration     | Version:  v2012                                 |
|   \\  /    A nd           | Website:  www.openfoam.com                      |
|    \\/     M anipulation  |                                                 |
\*---------------------------------------------------------------------------*/
FoamFile
{
    version     2.0;
    format      ascii;
    class       surfaceVectorField;
    location    "2.29";
    object      Uf;
}
// * * * * * * * * * * * * * * * * * * * * * * * * * * * * * * * * * * * * * //

dimensions      [0 1 -1 0 0 0 0];


internalField   nonuniform List<vector> 
56481
(
(0.099989102 3.00981193e-05 0)
(0.0999978486 2.5913031e-05 0)
(0.0999622818 5.74629195e-05 0)
(0.0999812268 7.18710199e-05 0)
(0.0999226985 7.97505268e-05 0)
(0.0999487055 0.00011107406 0)
(0.0998738987 9.4318165e-05 0)
(0.0999029442 0.000140111025 0)
(0.0998197988 9.94709467e-05 0)
(0.0998489545 0.000156002586 0)
(0.0997643031 9.51730602e-05 0)
(0.0997914111 0.000157832036 0)
(0.0997109256 8.25641676e-05 0)
(0.0997341509 0.000146828726 0)
(0.099662696 6.299307e-05 0)
(0.0996804888 0.000125013195 0)
(0.0996223329 3.76149428e-05 0)
(0.0996334534 9.4030747e-05 0)
(0.0995924999 7.6672707e-06 0)
(0.0995958571 5.52658642e-05 0)
(0.0995745035 -2.5115302e-05 0)
(0.0995694541 1.01478824e-05 0)
(0.0995622969 -5.58233894e-05 0)
(0.0995538539 -3.24812892e-05 0)
(0.0995565256 -7.72309905e-05 0)
(0.0995481188 -6.85490854e-05 0)
(0.0995558806 -8.41570323e-05 0)
(0.0995507614 -8.98084629e-05 0)
(0.09955747 -7.43396191e-05 0)
(0.0995584037 -9.09346416e-05 0)
(0.0995578817 -4.83987722e-05 0)
(0.0995666145 -7.04691357e-05 0)
(0.0995545231 -1.00259897e-05 0)
(0.0995707336 -3.12201078e-05 0)
(0.0995438104 3.46986342e-05 0)
(0.0995669224 2.20956385e-05 0)
(0.0995194593 8.04838565e-05 0)
(0.0995515446 8.20365573e-05 0)
(0.0994830543 0.000123734143 0)
(0.0995221787 0.000140429468 0)
(0.0994365367 0.000160867446 0)
(0.0994797005 0.000192695035 0)
(0.0993826162 0.000188756051 0)
(0.0994269356 0.000234205344 0)
(0.0993242774 0.00020552902 0)
(0.0993671266 0.000261972343 0)
(0.0992644838 0.000210639005 0)
(0.0993036768 0.000274789591 0)
(0.0992060409 0.000204678717 0)
(0.0992400441 0.000272865457 0)
(0.0991514859 0.000189244711 0)
(0.0991794456 0.000257611146 0)
(0.0991029834 0.000166813294 0)
(0.0991246782 0.000231503803 0)
(0.0990621816 0.00014062179 0)
(0.0990780208 0.000197998935 0)
(0.0990299951 0.00011454114 0)
(0.0990410555 0.00016150153 0)
(0.0990063432 9.28481356e-05 0)
(0.0990143971 0.000127268564 0)
(0.0989899367 7.9804005e-05 0)
(0.098997413 0.000101052858 0)
(0.0989782573 7.90349186e-05 0)
(0.0989880554 8.83803792e-05 0)
(0.098967875 9.28099881e-05 0)
(0.0989829549 9.35219587e-05 0)
(0.0989550685 0.000121382832 0)
(0.0989778583 0.000118414631 0)
(0.0989362521 0.000162687709 0)
(0.0989682623 0.000161885145 0)
(0.0989085603 0.000212639221 0)
(0.0989501214 0.000219664398 0)
(0.0988705303 0.000265972769 0)
(0.0989206326 0.0002852567 0)
(0.0988222312 0.000317391459 0)
(0.0988787955 0.000351326503 0)
(0.0987650557 0.000362717301 0)
(0.0988254624 0.000411351409 0)
(0.0987012207 0.000399688812 0)
(0.0987629219 0.000461027291 0)
(0.0986331317 0.00042816038 0)
(0.0986941693 0.000498962806 0)
(0.0985628097 0.000449683069 0)
(0.0986220937 0.000526474603 0)
(0.0984915386 0.00046667395 0)
(0.0985488359 0.000546631922 0)
(0.0984198013 0.000481513035 0)
(0.0984754894 0.000562966969 0)
(0.0983474583 0.000495886384 0)
(0.0984021755 0.00057834628 0)
(0.0982740508 0.000510542115 0)
(0.0983283823 0.000594359552 0)
(0.0981990921 0.000525429736 0)
(0.098253384 0.000611310999 0)
(0.0981222545 0.000540051209 0)
(0.0981765749 0.000628640368 0)
(0.0980434252 0.000553819386 0)
(0.0980976297 0.000645475932 0)
(0.0979626667 0.000566284717 0)
(0.0980165015 0.00066106072 0)
(0.097880139 0.000577196662 0)
(0.097933325 0.000674935444 0)
(0.0977960328 0.000586449567 0)
(0.0978483083 0.00068690896 0)
(0.0977105376 0.000593991831 0)
(0.097761663 0.000696926749 0)
(0.0976238405 0.000599758028 0)
(0.0976735834 0.000704945291 0)
(0.0975361403 0.000603644888 0)
(0.0975842608 0.00071086794 0)
(0.097447663 0.000605520963 0)
(0.0974939066 0.000714542378 0)
(0.0973586694 0.000605248661 0)
(0.0974027687 0.000715790044 0)
(0.0972694563 0.000602702259 0)
(0.0973111365 0.000714437448 0)
(0.0971803525 0.000597776208 0)
(0.097219338 0.000710334178 0)
(0.0970917146 0.000590385952 0)
(0.097127734 0.000703357311 0)
(0.0970039232 0.000580465837 0)
(0.097036712 0.000693408926 0)
(0.09691738 0.00056796735 0)
(0.0969466825 0.000680412931 0)
(0.0968325038 0.000552858649 0)
(0.0968580757 0.000664313937 0)
(0.0967497276 0.000535125032 0)
(0.0967713377 0.000645077954 0)
(0.0966694933 0.000514769857 0)
(0.0966869268 0.000622693741 0)
(0.0965922481 0.000491815772 0)
(0.0966053092 0.000597173973 0)
(0.0965184398 0.00046630632 0)
(0.0965269544 0.000568556012 0)
(0.0964485143 0.000438307921 0)
(0.0964523323 0.000536902387 0)
(0.0963829141 0.000407911672 0)
(0.0963819107 0.000502300962 0)
(0.0963220791 0.000375234145 0)
(0.096316154 0.000464864543 0)
(0.096266448 0.000340416486 0)
(0.0962555229 0.000424729585 0)
(0.0962164599 0.000303621337 0)
(0.0962004745 0.00038205382 0)
(0.096172555 0.00026502758 0)
(0.096151462 0.000337012406 0)
(0.096135173 0.000224822887 0)
(0.096108932 0.000289792467 0)
(0.0961047536 0.000183195756 0)
(0.0960733242 0.000240578764 0)
(0.0960817764 0.000140302675 0)
(0.0960450639 0.000189509753 0)
(0.0960665509 9.62456027e-05 0)
(0.0960245376 0.000136904784 0)
(0.0960591359 5.11573607e-05 0)
(0.0960120491 8.30803162e-05 0)
(0.0960593618 5.53802937e-06 0)
(0.096007808 2.83915828e-05 0)
(0.0960683387 -4.00826772e-05 0)
(0.096012134 -2.7266186e-05 0)
(0.0960865461 -8.57232584e-05 0)
(0.0960256012 -8.31618354e-05 0)
(0.0961140198 -0.000131456193 0)
(0.0960485532 -0.000139277404 0)
(0.0961507208 -0.00017706353 0)
(0.0960809544 -0.000195379788 0)
(0.0961965928 -0.000222266136 0)
(0.0961227967 -0.000251133445 0)
(0.0962515532 -0.000266797938 0)
(0.0961740864 -0.000306229412 0)
(0.0963154489 -0.000310377185 0)
(0.096234721 -0.000360320522 0)
(0.0963880471 -0.000352706957 0)
(0.0963045077 -0.000413029385 0)
(0.0964690351 -0.00039348254 0)
(0.0963831814 -0.000463968804 0)
(0.0965580197 -0.000432391498 0)
(0.0964703912 -0.000512744752 0)
(0.0966545309 -0.000469116098 0)
(0.096565698 -0.000558959655 0)
(0.0967580286 -0.000503341153 0)
(0.0966685823 -0.000602221392 0)
(0.0968679105 -0.000534765306 0)
(0.0967784518 -0.000642154534 0)
(0.0969835203 -0.000563113532 0)
(0.0968946479 -0.000678412219 0)
(0.0971041544 -0.000588148828 0)
(0.0970164535 -0.000710687867 0)
(0.097229069 -0.000609681109 0)
(0.0971431008 -0.000738725385 0)
(0.0973574872 -0.00062757237 0)
(0.0972737799 -0.000762326757 0)
(0.097488608 -0.000641738536 0)
(0.0974076486 -0.000781356797 0)
(0.0976216167 -0.000652148951 0)
(0.097543844 -0.000795745357 0)
(0.0977556965 -0.000658824496 0)
(0.0976814952 -0.000805487428 0)
(0.0978900411 -0.000661834989 0)
(0.0978197371 -0.00081064154 0)
(0.0980238668 -0.000661296016 0)
(0.0979577247 -0.000811326689 0)
(0.0981564236 -0.000657365116 0)
(0.0980946451 -0.000807717931 0)
(0.0982870057 -0.000650237208 0)
(0.0982297298 -0.000800040742 0)
(0.098414959 -0.000640139255 0)
(0.0983622644 -0.000788564317 0)
(0.0985396884 -0.000627324283 0)
(0.0984915967 -0.000773594031 0)
(0.0986606624 -0.000612065018 0)
(0.0986171423 -0.000755463367 0)
(0.098777416 -0.000594647363 0)
(0.0987383888 -0.000734525639 0)
(0.0988895528 -0.000575364041 0)
(0.0988548983 -0.000711145812 0)
(0.0989967444 -0.000554508596 0)
(0.0989663074 -0.000685692727 0)
(0.0990987298 -0.00053236998 0)
(0.0990723258 -0.00065853196 0)
(0.0991953124 -0.000509227814 0)
(0.0991727344 -0.000630019485 0)
(0.0992863564 -0.00048534843 0)
(0.0992673811 -0.000600496264 0)
(0.0993717823 -0.000460981562 0)
(0.0993561756 -0.000570283727 0)
(0.0994515607 -0.000436357525 0)
(0.0994390841 -0.000539679979 0)
(0.0995257048 -0.000411684496 0)
(0.0995161225 -0.000508956303 0)
(0.0995942594 -0.000387144659 0)
(0.0995873486 -0.000478352858 0)
(0.0996573088 -0.00036289059 0)
(0.0996528591 -0.000448070853 0)
(0.0997150124 -0.000339050119 0)
(0.0997127988 -0.000418271505 0)
(0.0997675627 -0.000315734448 0)
(0.0997673592 -0.000389098607 0)
(0.0998151718 -0.000293040175 0)
(0.0998167602 -0.00036068052 0)
(0.0998580652 -0.000271049199 0)
(0.0998612381 -0.000333127556 0)
(0.0998964773 -0.000249828825 0)
(0.0999010397 -0.000306530992 0)
(0.0999306481 -0.000229432314 0)
(0.0999364181 -0.000280963337 0)
(0.0999608193 -0.000209899617 0)
(0.0999676291 -0.000256479153 0)
(0.0999872316 -0.000191258013 0)
(0.0999949285 -0.000233115854 0)
(0.10001012 -0.00017352186 0)
(0.100018569 -0.000210893619 0)
(0.100029714 -0.000156692127 0)
(0.100038798 -0.000189820806 0)
(0.100046243 -0.000140759071 0)
(0.100055858 -0.000169900547 0)
(0.100059936 -0.000125706402 0)
(0.100069984 -0.000151119606 0)
(0.100071013 -0.000111513534 0)
(0.100081407 -0.000133453914 0)
(0.100079686 -9.81566203e-05 0)
(0.100090347 -0.000116872413 0)
(0.100086158 -8.56088018e-05 0)
(0.100097016 -0.000101338894 0)
(0.100090623 -7.38400093e-05 0)
(0.100101616 -8.681322e-05 0)
(0.100093266 -6.28164939e-05 0)
(0.100104339 -7.3252095e-05 0)
(0.100094263 -5.24997627e-05 0)
(0.100105372 -6.06092413e-05 0)
(0.100093785 -4.28434814e-05 0)
(0.100104896 -4.8834127e-05 0)
(0.100091996 -3.37908808e-05 0)
(0.100103088 -3.78701146e-05 0)
(0.100089077 -2.52818856e-05 0)
(0.100100125 -2.76665246e-05 0)
(0.100085253 -1.72831667e-05 0)
(0.100096176 -1.82045817e-05 0)
(0.100080822 -9.86294544e-06 0)
(0.100091376 -9.53013328e-06 0)
(0.100076173 -3.22539193e-06 0)
(0.100085894 -1.8405165e-06 0)
(0.100071133 2.46659931e-06 0)
(0.100079931 5.46549802e-06 0)
(0.100064828 7.30697039e-06 0)
(0.100073367 1.17090797e-05 0)
(0.100057597 1.15226996e-05 0)
(0.100066005 1.70440757e-05 0)
(0.100049618 1.5276257e-05 0)
(0.100057908 2.17275544e-05 0)
(0.100041022 1.86668731e-05 0)
(0.100049184 2.58925383e-05 0)
(0.100031931 2.17557574e-05 0)
(0.100039959 2.96212049e-05 0)
(0.100022452 2.45783518e-05 0)
(0.100030348 3.29634438e-05 0)
(0.100012686 2.71561349e-05 0)
(0.100020442 3.59541685e-05 0)
(0.100002716 2.95028263e-05 0)
(0.100010311 3.86246204e-05 0)
(0.0999926121 3.16250541e-05 0)
(0.100000019 4.10000023e-05 0)
(0.0999824284 3.35246781e-05 0)
(0.0999896242 4.30981192e-05 0)
(0.0999722077 3.52028736e-05 0)
(0.0999791753 4.4932323e-05 0)
(0.0999619823 3.66632034e-05 0)
(0.0999687114 4.65146384e-05 0)
(0.0999517775 3.79127937e-05 0)
(0.0999582636 4.78574554e-05 0)
(0.0999416135 3.89621433e-05 0)
(0.0999478577 4.89740511e-05 0)
(0.0999315084 3.98243374e-05 0)
(0.0999375157 4.98786595e-05 0)
(0.0999214787 4.05140922e-05 0)
(0.0999272565 5.05863596e-05 0)
(0.0999115403 4.10468052e-05 0)
(0.0999170971 5.11127356e-05 0)
(0.0999017088 4.14377256e-05 0)
(0.0999070532 5.14733885e-05 0)
(0.0998919994 4.17013042e-05 0)
(0.0998971394 5.16834575e-05 0)
(0.0998824269 4.18507309e-05 0)
(0.0998873694 5.17572464e-05 0)
(0.0998730052 4.1897657e-05 0)
(0.0998777561 5.17079525e-05 0)
(0.0998637472 4.18521091e-05 0)
(0.0998683113 5.15474908e-05 0)
(0.0998546646 4.17225681e-05 0)
(0.0998590457 5.12864346e-05 0)
(0.0998457674 4.15161537e-05 0)
(0.0998499689 5.09340696e-05 0)
(0.0998370645 4.12388598e-05 0)
(0.0998410892 5.049852e-05 0)
(0.099828563 4.0895816e-05 0)
(0.0998324136 4.99869182e-05 0)
(0.0998202687 4.04915544e-05 0)
(0.099823948 4.9405596e-05 0)
(0.099812186 4.00302531e-05 0)
(0.0998156969 4.87602753e-05 0)
(0.0998043184 3.95159342e-05 0)
(0.0998076641 4.80562372e-05 0)
(0.0997966683 3.89526009e-05 0)
(0.0997998522 4.7298458e-05 0)
(0.0997892374 3.83443092e-05 0)
(0.0997922632 4.64917043e-05 0)
(0.099782027 3.7695178e-05 0)
(0.0997848986 4.56405847e-05 0)
(0.0997750383 3.70093531e-05 0)
(0.0997777595 4.47495619e-05 0)
(0.099768272 3.6290936e-05 0)
(0.0997708468 4.3822935e-05 0)
(0.099761729 3.55438922e-05 0)
(0.0997641611 4.28647992e-05 0)
(0.0997554103 3.47719527e-05 0)
(0.0997577031 4.18790005e-05 0)
(0.0997493168 3.3978533e-05 0)
(0.0997514734 4.08690874e-05 0)
(0.0997434496 3.31666887e-05 0)
(0.0997454727 3.98382711e-05 0)
(0.0997378099 3.2339096e-05 0)
(0.0997397018 3.87894003e-05 0)
(0.0997323988 3.14980639e-05 0)
(0.0997341612 3.77249319e-05 0)
(0.0997272179 3.06454691e-05 0)
(0.0997288525 3.6646945e-05 0)
(0.0997222689 2.97829866e-05 0)
(0.0997237748 3.55569297e-05 0)
(0.0997175537 2.89108987e-05 0)
(0.0997189363 3.44563952e-05 0)
(0.0997130757 2.80328355e-05 0)
(0.0997143154 3.33435183e-05 0)
(0.0997088389 2.71329976e-05 0)
(0.0997099964 3.22264845e-05 0)
(0.099704855 2.62752837e-05 0)
(0.0997057079 3.10584853e-05 0)
(0.0997011237 2.51368964e-05 0)
(0.0997024542 3.002735e-05 0)
(0.0996970534 2.81702967e-05 0)
(0.0999921819 6.24493485e-05 0)
(0.0999980357 3.49157313e-05 0)
(0.0999672529 0.000117950518 0)
(0.0999822419 0.000100577086 0)
(0.0999279448 0.000162395334 0)
(0.0999503557 0.000156337989 0)
(0.0998777143 0.000191912534 0)
(0.0999045096 0.000197952144 0)
(0.0998206955 0.000204169489 0)
(0.0998496977 0.000221660645 0)
(0.0997612958 0.000199408862 0)
(0.0997908084 0.000226231595 0)
(0.099703581 0.000179695401 0)
(0.0997318736 0.000213288195 0)
(0.099651026 0.000147360724 0)
(0.0996763525 0.000185531142 0)
(0.0996065736 0.000104421586 0)
(0.0996273828 0.000145218307 0)
(0.0995724973 5.33314436e-05 0)
(0.0995877172 9.45052255e-05 0)
(0.0995490332 -1.61319639e-06 0)
(0.0995591695 3.7167199e-05 0)
(0.0995396096 -5.25143706e-05 0)
(0.0995430388 -2.16298638e-05 0)
(0.0995422199 -8.96601102e-05 0)
(0.0995393291 -7.1554954e-05 0)
(0.0995530055 -0.000105231666 0)
(0.099545611 -0.000102228225 0)
(0.0995671911 -9.50409677e-05 0)
(0.0995578208 -0.000107269589 0)
(0.0995791668 -5.95441823e-05 0)
(0.0995708182 -8.42592866e-05 0)
(0.0995828431 -3.73175678e-06 0)
(0.0995790605 -3.54534813e-05 0)
(0.0995749369 6.39989697e-05 0)
(0.0995777237 3.11997648e-05 0)
(0.099553946 0.000134862051 0)
(0.0995637724 0.000106207946 0)
(0.0995183294 0.00020158096 0)
(0.0995358049 0.000181442505 0)
(0.0994697348 0.00025800403 0)
(0.0994940834 0.000248652421 0)
(0.0994110811 0.000299521013 0)
(0.0994408219 0.000301746003 0)
(0.0993460858 0.000323626015 0)
(0.0993793993 0.000336815312 0)
(0.0992787606 0.000329781044 0)
(0.0993136082 0.000352315633 0)
(0.0992129593 0.000319007804 0)
(0.0992472914 0.000348636573 0)
(0.0991521377 0.00029360955 0)
(0.0991840693 0.000327648207 0)
(0.0990992087 0.000257049433 0)
(0.0991271317 0.000292452288 0)
(0.0990563813 0.000213938566 0)
(0.0990790913 0.000247315319 0)
(0.0990249315 0.00017002302 0)
(0.0990417952 0.000197716542 0)
(0.0990049212 0.000131954641 0)
(0.0990160489 0.000150310668 0)
(0.0989949583 0.00010664821 0)
(0.0990013163 0.000112525335 0)
(0.098992136 0.000100194252 0)
(0.0989955195 9.16302237e-05 0)
(0.0989922567 0.000116522041 0)
(0.0989950768 9.33830143e-05 0)
(0.098990355 0.000156208688 0)
(0.0989952841 0.000120604464 0)
(0.0989814646 0.000215972027 0)
(0.0989910268 0.000172122588 0)
(0.0989615362 0.000289192702 0)
(0.0989776714 0.000242612275 0)
(0.0989282523 0.000367332568 0)
(0.0989519336 0.000323583599 0)
(0.0988814053 0.000441857491 0)
(0.0989124832 0.000405271488 0)
(0.0988227399 0.000506142231 0)
(0.0988600758 0.000478905465 0)
(0.0987553186 0.000556763884 0)
(0.0987971631 0.000538663914 0)
(0.098682617 0.000593788773 0)
(0.0987271039 0.000582679863 0)
(0.0986076425 0.000620033864 0)
(0.0986532354 0.000612808821 0)
(0.0985323457 0.00063965886 0)
(0.0985780994 0.000633337315 0)
(0.0984574602 0.000656658397 0)
(0.0985030486 0.000649198721 0)
(0.0983827366 0.000673784543 0)
(0.0984282886 0.000664391644 0)
(0.0983073971 0.000692173018 0)
(0.0983532469 0.000681114124 0)
(0.098230597 0.000711615197 0)
(0.0982770599 0.000699747526 0)
(0.0981517325 0.000731178378 0)
(0.0981989758 0.000719454043 0)
(0.098070543 0.000749823897 0)
(0.0981185607 0.000738966795 0)
(0.0979870529 0.000766787909 0)
(0.0980357107 0.000757200881 0)
(0.0979014444 0.000781672911 0)
(0.097950545 0.000773514947 0)
(0.0978139454 0.000794341125 0)
(0.0978632779 0.000787665274 0)
(0.0977247719 0.000804748743 0)
(0.0977741323 0.000799611369 0)
(0.0976341221 0.000812824407 0)
(0.0976833112 0.000809329896 0)
(0.0975421991 0.000818426629 0)
(0.097591012 0.000816718661 0)
(0.0974492356 0.000821360832 0)
(0.0974974529 0.000821591298 0)
(0.0973555074 0.000821417823 0)
(0.0974028928 0.000823719499 0)
(0.0972613349 0.000818404868 0)
(0.0973076379 0.000822878456 0)
(0.0971670775 0.000812159618 0)
(0.0972120383 0.000818872947 0)
(0.0970731264 0.000802551073 0)
(0.0971164807 0.000811543457 0)
(0.0969798986 0.000789475871 0)
(0.0970213816 0.000800762135 0)
(0.096887833 0.000772855609 0)
(0.0969271824 0.000786427827 0)
(0.0967973868 0.000752636752 0)
(0.0968343453 0.000768464192 0)
(0.0967090313 0.000728792085 0)
(0.0967433493 0.000746820534 0)
(0.0966232489 0.000701322239 0)
(0.0966546864 0.000721473466 0)
(0.0965405283 0.000670256423 0)
(0.0965688563 0.000692428055 0)
(0.0964613612 0.000635652187 0)
(0.0964863623 0.00065971811 0)
(0.0963862397 0.000597594467 0)
(0.0964077072 0.000623405957 0)
(0.0963156535 0.000556194031 0)
(0.0963333905 0.000583581944 0)
(0.0962500886 0.000511585465 0)
(0.0962639064 0.000540363597 0)
(0.0961900246 0.000463924938 0)
(0.0961997425 0.00049389415 0)
(0.0961359337 0.000413387553 0)
(0.0961413798 0.000444340309 0)
(0.0960882777 0.000360164603 0)
(0.0960892911 0.000391889042 0)
(0.0960475037 0.000304460709 0)
(0.0960439386 0.000336744293 0)
(0.0960140287 0.000246489401 0)
(0.0960057719 0.00027912573 0)
(0.0959881839 0.000186456837 0)
(0.0959752084 0.00021927045 0)
(0.0959703472 0.000124566202 0)
(0.0959526319 0.000157444016 0)
(0.0959609633 6.10983223e-05 0)
(0.0959384275 9.38860599e-05 0)
(0.095960783 -3.48021008e-06 0)
(0.0959329891 2.8599178e-05 0)
(0.0959696047 -6.86598841e-05 0)
(0.0959366512 -3.74245649e-05 0)
(0.0959878373 -0.000134178924 0)
(0.0959497014 -0.000104156878 0)
(0.0960156428 -0.000199847724 0)
(0.0959724223 -0.000171295882 0)
(0.096053144 -0.000265315425 0)
(0.0960049868 -0.000238563053 0)
(0.096100392 -0.000330182234 0)
(0.0960474574 -0.000305540209 0)
(0.0961573334 -0.000394045894 0)
(0.0960998469 -0.000371798247 0)
(0.0962238344 -0.000456474119 0)
(0.0961620853 -0.00043689742 0)
(0.0962996791 -0.000517008598 0)
(0.0962340068 -0.000500365708 0)
(0.0963845609 -0.000575180926 0)
(0.0963153568 -0.000561711421 0)
(0.0964780812 -0.000630521363 0)
(0.0964057886 -0.000620434875 0)
(0.096579753 -0.000682567923 0)
(0.0965048595 -0.000676036224 0)
(0.0966890048 -0.000730877968 0)
(0.0966120341 -0.000728026449 0)
(0.0968051873 -0.000775039952 0)
(0.0967266902 -0.000775940456 0)
(0.0969275809 -0.000814684244 0)
(0.0968481242 -0.000819350331 0)
(0.097055404 -0.000849493087 0)
(0.0969755591 -0.000857878081 0)
(0.0971878224 -0.000879209255 0)
(0.0971081548 -0.000891207122 0)
(0.0973239603 -0.000903642972 0)
(0.0972450188 -0.000919091574 0)
(0.0974629129 -0.000922676877 0)
(0.0973852202 -0.000941362903 0)
(0.0976037608 -0.000936268735 0)
(0.0975278046 -0.000957933801 0)
(0.0977455843 -0.000944451736 0)
(0.0976718102 -0.000968799325 0)
(0.0978874791 -0.000947332443 0)
(0.097816284 -0.00097403548 0)
(0.0980285704 -0.000945086549 0)
(0.0979602981 -0.000973795469 0)
(0.0981680266 -0.00093795277 0)
(0.0981029647 -0.000968303847 0)
(0.0983050706 -0.000926225247 0)
(0.0982434489 -0.000957848905 0)
(0.0984389892 -0.000910244846 0)
(0.0983809805 -0.000942773641 0)
(0.0985691409 -0.000890389741 0)
(0.0985148626 -0.000923465698 0)
(0.0986949607 -0.000867065686 0)
(0.0986444778 -0.000900346763 0)
(0.0988159632 -0.00084069627 0)
(0.0987692927 -0.000873861798 0)
(0.0989317435 -0.000811713576 0)
(0.0988888591 -0.000844468539 0)
(0.0990419764 -0.000780549432 0)
(0.0990028142 -0.000812627616 0)
(0.0991464141 -0.000747627534 0)
(0.0991108779 -0.000778793542 0)
(0.099244882 -0.000713356538 0)
(0.0992128493 -0.000743406768 0)
(0.0993372739 -0.000678124259 0)
(0.0993086014 -0.000706886937 0)
(0.099423546 -0.000642292803 0)
(0.099398075 -0.000669627309 0)
(0.0995037102 -0.000606194475 0)
(0.099481272 -0.000631990235 0)
(0.0995778275 -0.000570127979 0)
(0.0995582485 -0.000594303557 0)
(0.0996460028 -0.000534353727 0)
(0.0996291079 -0.000556857706 0)
(0.0997083838 -0.000499090368 0)
(0.0996939965 -0.00051990354 0)
(0.0997651622 -0.000464521704 0)
(0.0997531004 -0.00048365263 0)
(0.0998165601 -0.000430806978 0)
(0.0998066405 -0.000448284064 0)
(0.0998628201 -0.000398083458 0)
(0.0998548628 -0.000413949685 0)
(0.0999041986 -0.000366466202 0)
(0.0998980299 -0.000380775503 0)
(0.0999409602 -0.000336048141 0)
(0.0999364145 -0.000348862544 0)
(0.0999733739 -0.00030690093 0)
(0.0999702945 -0.000318288157 0)
(0.100001709 -0.000279076181 0)
(0.0999999493 -0.000289107667 0)
(0.100026234 -0.000252606754 0)
(0.100025656 -0.000261356225 0)
(0.100047212 -0.000227507473 0)
(0.100047689 -0.000235050879 0)
(0.100064905 -0.000203775796 0)
(0.100066315 -0.000210193688 0)
(0.100079558 -0.000181394599 0)
(0.100081794 -0.000186774038 0)
(0.100091411 -0.000160335877 0)
(0.100094374 -0.00016476819 0)
(0.100100692 -0.000140563139 0)
(0.100104294 -0.000144141985 0)
(0.100107624 -0.000122033004 0)
(0.100111783 -0.000124853692 0)
(0.100112415 -0.00010469642 0)
(0.10011706 -0.000106856094 0)
(0.100115267 -8.84998283e-05 0)
(0.100120331 -9.0098076e-05 0)
(0.100116374 -7.33864724e-05 0)
(0.100121794 -7.4526376e-05 0)
(0.100115923 -5.92983382e-05 0)
(0.100121635 -6.00893178e-05 0)
(0.100114106 -4.61801083e-05 0)
(0.100120033 -4.67420203e-05 0)
(0.100111115 -3.3983796e-05 0)
(0.100117156 -3.4425955e-05 0)
(0.100107119 -2.26744314e-05 0)
(0.100113166 -2.30650025e-05 0)
(0.100102217 -1.2238114e-05 0)
(0.100108207 -1.25600621e-05 0)
(0.100096309 -2.67589591e-06 0)
(0.100102396 -2.72678596e-06 0)
(0.100089522 5.92829553e-06 0)
(0.100095807 5.97431527e-06 0)
(0.100082344 1.3437239e-05 0)
(0.100088581 1.37312197e-05 0)
(0.100074612 1.99045548e-05 0)
(0.100080815 2.06121062e-05 0)
(0.100066272 2.55372363e-05 0)
(0.100072489 2.66477663e-05 0)
(0.10005739 3.05001793e-05 0)
(0.100063619 3.19561448e-05 0)
(0.100048048 3.49034203e-05 0)
(0.10005425 3.66497077e-05 0)
(0.100038327 3.88173518e-05 0)
(0.10004446 4.08144441e-05 0)
(0.1000283 4.2289068e-05 0)
(0.10003434 4.45106077e-05 0)
(0.100018028 4.53587312e-05 0)
(0.100023971 4.77819652e-05 0)
(0.100007573 4.80642453e-05 0)
(0.10001342 5.06636876e-05 0)
(0.099996991 5.04379025e-05 0)
(0.100002746 5.31854824e-05 0)
(0.099986332 5.25050171e-05 0)
(0.0999919978 5.53721009e-05 0)
(0.0999756401 5.42857677e-05 0)
(0.099981219 5.72442069e-05 0)
(0.0999649534 5.57975658e-05 0)
(0.0999704453 5.88205651e-05 0)
(0.0999543044 5.70565359e-05 0)
(0.0999597063 6.01199399e-05 0)
(0.0999437205 5.80782611e-05 0)
(0.0999490272 6.11615604e-05 0)
(0.0999332246 5.88782608e-05 0)
(0.0999384297 6.19648056e-05 0)
(0.0999228362 5.94722347e-05 0)
(0.0999279333 6.25488231e-05 0)
(0.0999125718 5.98759871e-05 0)
(0.0999175548 6.29322718e-05 0)
(0.0999024463 6.01051438e-05 0)
(0.0999073099 6.31330893e-05 0)
(0.0998924726 6.01748568e-05 0)
(0.0998972125 6.31682588e-05 0)
(0.0998826627 6.00995689e-05 0)
(0.0998872756 6.30535947e-05 0)
(0.099873027 5.98928132e-05 0)
(0.0998775109 6.2803568e-05 0)
(0.0998635753 5.95670534e-05 0)
(0.0998679291 6.24312445e-05 0)
(0.0998543163 5.91336091e-05 0)
(0.0998585395 6.19483308e-05 0)
(0.0998452576 5.8602672e-05 0)
(0.0998493505 6.13652715e-05 0)
(0.0998364059 5.79833842e-05 0)
(0.0998403691 6.06913689e-05 0)
(0.0998277669 5.72839461e-05 0)
(0.0998316013 5.993492e-05 0)
(0.0998193451 5.65117422e-05 0)
(0.099823052 5.91033708e-05 0)
(0.0998111444 5.5673468e-05 0)
(0.099814725 5.82034729e-05 0)
(0.0998031678 5.47752481e-05 0)
(0.0998066232 5.72414282e-05 0)
(0.0997954176 5.38227398e-05 0)
(0.0997987489 5.62230078e-05 0)
(0.0997878954 5.28212125e-05 0)
(0.0997911036 5.51536379e-05 0)
(0.0997806025 5.17756032e-05 0)
(0.0997836885 5.40384516e-05 0)
(0.0997735398 5.06905476e-05 0)
(0.0997765041 5.28823156e-05 0)
(0.099766708 4.95703903e-05 0)
(0.0997695511 5.16898196e-05 0)
(0.0997601076 4.84191829e-05 0)
(0.0997628298 5.04652614e-05 0)
(0.099753739 4.72406724e-05 0)
(0.0997563405 4.92126186e-05 0)
(0.0997476024 4.60382759e-05 0)
(0.0997500834 4.79355048e-05 0)
(0.0997416981 4.48150563e-05 0)
(0.0997440589 4.66371342e-05 0)
(0.0997360265 4.35736915e-05 0)
(0.0997382672 4.53203036e-05 0)
(0.0997305881 4.23164635e-05 0)
(0.0997327085 4.39873662e-05 0)
(0.0997253834 4.10451386e-05 0)
(0.0997273838 4.2640248e-05 0)
(0.0997204131 3.97611865e-05 0)
(0.0997222915 4.12802088e-05 0)
(0.0997156784 3.84642949e-05 0)
(0.0997174391 3.99085558e-05 0)
(0.0997111803 3.71580985e-05 0)
(0.0997128038 3.85230703e-05 0)
(0.0997069188 3.58218372e-05 0)
(0.0997084686 3.71337285e-05 0)
(0.0997028967 3.45411734e-05 0)
(0.0997041576 3.5689953e-05 0)
(0.0996990722 3.28802e-05 0)
(0.0997008803 3.44313954e-05 0)
(0.0996954221 3.22243514e-05 0)
(0.0999906789 7.64482652e-05 0)
(0.0999979455 4.56491672e-05 0)
(0.0999651959 0.000144162002 0)
(0.0999818508 0.000129921156 0)
(0.0999258758 0.000198322215 0)
(0.0999497938 0.00020161564 0)
(0.0998761101 0.00023479066 0)
(0.0999037839 0.000255258098 0)
(0.0998198998 0.000251064294 0)
(0.0998485689 0.000286387618 0)
(0.0997614055 0.000247409754 0)
(0.0997889701 0.000293588718 0)
(0.0997044855 0.000226136386 0)
(0.0997291147 0.000278832452 0)
(0.0996524884 0.000189882495 0)
(0.0996726045 0.000245406513 0)
(0.0996083224 0.000140999326 0)
(0.0996227206 0.000196076165 0)
(0.0995744924 8.26762016e-05 0)
(0.099582419 0.000133461052 0)
(0.0995528657 2.08706256e-05 0)
(0.099554143 6.20706141e-05 0)
(0.0995426345 -3.6009662e-05 0)
(0.0995389028 -9.84850048e-06 0)
(0.0995425576 -7.87963034e-05 0)
(0.0995359292 -7.14663965e-05 0)
(0.0995502277 -9.90156943e-05 0)
(0.099543187 -0.000111060397 0)
(0.0995612566 -9.14509574e-05 0)
(0.099556879 -0.000119969582 0)
(0.099570532 -5.59544632e-05 0)
(0.099571602 -9.49400695e-05 0)
(0.0995735766 2.90440071e-06 0)
(0.0995817847 -3.89593985e-05 0)
(0.0995662555 7.72211089e-05 0)
(0.09958258 3.96301939e-05 0)
(0.0995455156 0.000157096307 0)
(0.09957025 0.000130090264 0)
(0.099511229 0.000232756013 0)
(0.0995430494 0.000220923993 0)
(0.0994647637 0.000296461951 0)
(0.0995016098 0.000302157977 0)
(0.0994087482 0.000342941487 0)
(0.0994482587 0.000366248703 0)
(0.099346506 0.000369347479 0)
(0.0993863486 0.000408488057 0)
(0.0992816877 0.000375040285 0)
(0.0993197482 0.000426954917 0)
(0.0992179246 0.000361188249 0)
(0.0992524558 0.000422060812 0)
(0.0991585651 0.000330394785 0)
(0.0991882881 0.00039600158 0)
(0.0991064979 0.000286516625 0)
(0.0991306474 0.000352408354 0)
(0.0990639729 0.000234669842 0)
(0.0990823366 0.000296283527 0)
(0.0990323613 0.000181264824 0)
(0.0990453402 0.000234117844 0)
(0.0990118681 0.000133800472 0)
(0.0990205358 0.000173908882 0)
(0.0990012737 0.000100171503 0)
(0.0990073896 0.000124724976 0)
(0.0989978287 8.74419858e-05 0)
(0.0990037558 9.55971766e-05 0)
(0.0989974464 0.000100331446 0)
(0.0990059305 9.38231585e-05 0)
(0.0989952843 0.000139875162 0)
(0.0990090507 0.000123094217 0)
(0.0989865649 0.00020275869 0)
(0.0990078065 0.000182163077 0)
(0.098967408 0.000281697293 0)
(0.0989973467 0.0002646717 0)
(0.0989355168 0.000366913644 0)
(0.098974182 0.000360306905 0)
(0.0988905268 0.000448362597 0)
(0.0989368193 0.000457078057 0)
(0.0988338999 0.000518047489 0)
(0.0988859161 0.000544112288 0)
(0.0987683814 0.00057168869 0)
(0.0988238999 0.000614109434 0)
(0.0986971898 0.000609211268 0)
(0.0987541754 0.000664658046 0)
(0.0986231957 0.000633956856 0)
(0.0986801772 0.000698014204 0)
(0.0985483434 0.00065100906 0)
(0.0986045701 0.000719530858 0)
(0.0984734583 0.000665327483 0)
(0.0985288244 0.000735430055 0)
(0.0983984238 0.000680371738 0)
(0.0984532336 0.000750795014 0)
(0.0983225821 0.000697591166 0)
(0.0983772698 0.000768447023 0)
(0.0982451622 0.000716735858 0)
(0.0983000709 0.000788897692 0)
(0.0981655817 0.000736627661 0)
(0.0982208555 0.000811092205 0)
(0.0980835626 0.000755946761 0)
(0.0981391457 0.000833413019 0)
(0.0979990951 0.000773725563 0)
(0.0980547938 0.000854466426 0)
(0.0979123299 0.00078947322 0)
(0.0979678858 0.000873426448 0)
(0.0978234752 0.000803041267 0)
(0.0978786153 0.000889982863 0)
(0.0977327404 0.000814408017 0)
(0.0977871961 0.000904093861 0)
(0.0976403271 0.000823517413 0)
(0.0976938307 0.000915745122 0)
(0.0975464472 0.000830220133 0)
(0.0975987214 0.000924822798 0)
(0.0974513445 0.000834293607 0)
(0.0975020954 0.000931103591 0)
(0.0973553075 0.000835491447 0)
(0.0974042247 0.000934307492 0)
(0.0972586718 0.000833584087 0)
(0.0973054328 0.000934155987 0)
(0.0971618142 0.000828377157 0)
(0.0972060912 0.000930405963 0)
(0.0970651463 0.000819712654 0)
(0.0971066117 0.00092285793 0)
(0.0969691087 0.000807463695 0)
(0.0970074393 0.000911350957 0)
(0.0968741656 0.00079153041 0)
(0.0969090461 0.000895756275 0)
(0.0967808011 0.000771839089 0)
(0.0968119267 0.000875974838 0)
(0.0966895144 0.000748343335 0)
(0.0967165931 0.000851938452 0)
(0.0966008152 0.000721025455 0)
(0.0966235704 0.000823611998 0)
(0.0965152177 0.000689897176 0)
(0.0965333917 0.000790994834 0)
(0.0964332365 0.000654999753 0)
(0.0964465932 0.000754120728 0)
(0.0963553821 0.000616403837 0)
(0.0963637108 0.000713056528 0)
(0.0962821585 0.00057420908 0)
(0.0962852763 0.000667900006 0)
(0.0962140625 0.000528543233 0)
(0.0962118152 0.000618777231 0)
(0.0961515832 0.000479560446 0)
(0.0961438448 0.000565839918 0)
(0.096095203 0.000427438521 0)
(0.0960818723 0.000509262977 0)
(0.0960453963 0.000372375793 0)
(0.0960263932 0.000449242308 0)
(0.0960026272 0.000314588755 0)
(0.0959778904 0.000385993464 0)
(0.0959673476 0.000254310148 0)
(0.0959368316 0.000319750727 0)
(0.0959399979 0.000191802628 0)
(0.0959036679 0.000250764106 0)
(0.0959210068 0.000127374648 0)