/*--------------------------------*- C++ -*----------------------------------*\
| =========                 |                                                 |
| \\      /  F ield         | OpenFOAM: The Open Source CFD Toolbox           |
|  \\    /   O peration     | Version:  v2012                                 |
|   \\  /    A nd           | Website:  www.openfoam.com                      |
|    \\/     M anipulation  |                                                 |
\*---------------------------------------------------------------------------*/
FoamFile
{
    version     2.0;
    format      ascii;
    class       volVectorField;
    location    "2.94";
    object      H;
}
// * * * * * * * * * * * * * * * * * * * * * * * * * * * * * * * * * * * * * //

dimensions      [0 1 -2 0 0 0 0];


internalField   nonuniform List<vector> 
28416
(
(197.647007 -0.01256848 0)
(197.657775 -0.0455564144 0)
(197.689827 -0.0900043755 0)
(197.744568 -0.143541955 0)
(197.823279 -0.19874439 0)
(197.924163 -0.244963486 0)
(198.042003 -0.270996669 0)
(198.168195 -0.268827979 0)
(198.291979 -0.23621802 0)
(198.402509 -0.176652698 0)
(198.490402 -0.0973953924 0)
(198.54786 -0.00675205318 0)
(198.579292 0.0893815002 0)
(198.590487 0.179768142 0)
(198.581854 0.253579063 0)
(198.555083 0.305686168 0)
(198.514997 0.334124285 0)
(198.466839 0.339282986 0)
(198.415518 0.323581675 0)
(198.365507 0.290799998 0)
(198.320507 0.245793286 0)
(198.282923 0.19473331 0)
(198.253838 0.145542094 0)
(198.233008 0.107494554 0)
(198.218082 0.0894830219 0)
(198.20364 0.0980611545 0)
(198.181346 0.136224923 0)
(198.141813 0.202859994 0)
(198.076837 0.292660026 0)
(197.980688 0.397004013 0)
(197.850601 0.505682525 0)
(197.68682 0.608732512 0)
(197.492189 0.697828279 0)
(197.271392 0.76707352 0)
(197.030102 0.813269846 0)
(196.774284 0.835830043 0)
(196.509694 0.83651396 0)
(196.24155 0.819117054 0)
(195.974266 0.789164452 0)
(195.711129 0.753580902 0)
(195.453889 0.720243466 0)
(195.202317 0.697309905 0)
(194.953926 0.692271592 0)
(194.704076 0.710796988 0)
(194.446624 0.755573729 0)
(194.175043 0.825471528 0)
(193.883758 0.915372793 0)
(193.569333 1.01689849 0)
(193.23116 1.1199909 0)
(192.871505 1.21499144 0)
(192.494906 1.29462077 0)
(192.107157 1.35525646 0)
(191.714155 1.39713721 0)
(191.320938 1.42351143 0)
(190.931137 1.43911992 0)
(190.546903 1.44859575 0)
(190.169225 1.45530696 0)
(189.79845 1.46091171 0)
(189.434776 1.46557931 0)
(189.07858 1.46860022 0)
(188.73052 1.46904341 0)
(188.391473 1.46620935 0)
(188.062384 1.45979158 0)
(187.744132 1.44980645 0)
(187.437451 1.43641998 0)
(187.142913 1.41978975 0)
(186.860951 1.3999815 0)
(186.5919 1.37696059 0)
(186.336029 1.35062529 0)
(186.093555 1.32084642 0)
(185.864665 1.28749311 0)
(185.649513 1.25044192 0)
(185.448235 1.20957611 0)
(185.260966 1.16478349 0)
(185.087852 1.11595715 0)
(184.92908 1.0629994 0)
(184.784916 1.00582322 0)
(184.655798 0.944346092 0)
(184.542334 0.878418171 0)
(184.444905 0.807791285 0)
(184.363781 0.732305352 0)
(184.299437 0.651689965 0)
(184.252269 0.565553583 0)
(184.222426 0.473502086 0)
(184.209778 0.375206903 0)
(184.213916 0.27076609 0)
(184.234238 0.160805855 0)
(184.267176 0.0471609023 0)
(184.317376 -0.0632878869 0)
(184.393783 -0.172186193 0)
(184.498219 -0.283067037 0)
(184.628121 -0.396526557 0)
(184.782882 -0.512047953 0)
(184.963224 -0.629261218 0)
(185.169296 -0.747664671 0)
(185.400813 -0.866456909 0)
(185.657461 -0.984672599 0)
(185.938795 -1.10126549 0)
(186.244107 -1.21511425 0)
(186.572402 -1.32503134 0)
(186.92241 -1.42978662 0)
(187.292574 -1.52813703 0)
(187.681057 -1.61886288 0)
(188.085759 -1.7008106 0)
(188.504345 -1.77293672 0)
(188.934275 -1.83434809 0)
(189.372845 -1.88433468 0)
(189.817234 -1.92239316 0)
(190.264556 -1.94824054 0)
(190.711918 -1.96181849 0)
(191.156476 -1.96328923 0)
(191.595498 -1.95302411 0)
(192.026411 -1.93158572 0)
(192.446846 -1.89970455 0)
(192.854681 -1.85825136 0)
(193.24806 -1.80820651 0)
(193.625412 -1.75062775 0)
(193.985461 -1.6866182 0)
(194.327218 -1.61729577 0)
(194.649976 -1.54376521 0)
(194.953294 -1.46709394 0)
(195.236975 -1.38829193 0)
(195.501042 -1.30829579 0)
(195.745712 -1.2279572 0)
(195.971373 -1.14803531 0)
(196.17855 -1.06919276 0)
(196.367888 -0.991995042 0)
(196.54012 -0.916912654 0)
(196.696049 -0.844325048 0)
(196.836527 -0.774525734 0)
(196.962439 -0.707728718 0)
(197.074686 -0.644076549 0)
(197.174176 -0.583649403 0)
(197.261813 -0.526473688 0)
(197.338482 -0.472529397 0)
(197.405051 -0.42175773 0)
(197.462369 -0.374070496 0)
(197.511254 -0.329359734 0)
(197.552496 -0.287505397 0)
(197.586852 -0.248382807 0)
(197.615047 -0.211872714 0)
(197.637767 -0.177873509 0)
(197.655651 -0.146313269 0)
(197.669272 -0.117156802 0)
(197.679109 -0.0903974156 0)
(197.68552 -0.066022529 0)
(197.688755 -0.0439656774 0)
(197.68897 -0.0240817389 0)
(197.686157 -0.00607491443 0)
(197.68139 0.0105811984 0)
(197.675302 0.0255854589 0)
(197.667671 0.0388586852 0)
(197.658406 0.0505723449 0)
(197.647689 0.060885489 0)
(197.635691 0.0699372585 0)
(197.62256 0.0778648131 0)
(197.608458 0.0847912243 0)
(197.593538 0.0908218024 0)
(197.577943 0.0960461435 0)
(197.561799 0.100540885 0)
(197.545217 0.104372326 0)
(197.528295 0.107598273 0)
(197.511121 0.110269737 0)
(197.493768 0.112432541 0)
(197.476302 0.114128696 0)
(197.458778 0.115397391 0)
(197.441243 0.116275558 0)
(197.423738 0.116798106 0)
(197.406302 0.116997959 0)
(197.388965 0.116905995 0)
(197.371754 0.116550974 0)
(197.354697 0.115959452 0)
(197.337815 0.115155711 0)
(197.321127 0.114161696 0)
(197.304651 0.112997007 0)
(197.288403 0.111678946 0)
(197.272395 0.11022265 0)
(197.256638 0.108641337 0)
(197.241142 0.106946639 0)
(197.225914 0.10514901 0)
(197.210961 0.103257707 0)
(197.19629 0.101280647 0)
(197.181911 0.0992246413 0)
(197.167821 0.0970949561 0)
(197.154052 0.0948976706 0)
(197.140533 0.0926275027 0)
(197.127563 0.090317067 0)
(197.114207 0.0878118569 0)
(197.103964 0.0857123583 0)
(197.082978 0.0812914344 0)
(197.64851 -0.023490403 0)
(197.654713 -0.0864265632 0)
(197.680863 -0.169935435 0)
(197.731236 -0.269599391 0)
(197.809255 -0.372871151 0)
(197.914318 -0.461400205 0)
(198.041485 -0.515598682 0)
(198.181417 -0.521184295 0)
(198.321736 -0.47361926 0)
(198.449475 -0.378248698 0)
(198.553661 -0.247467577 0)
(198.628024 -0.0968034957 0)
(198.670291 0.0589110605 0)
(198.679527 0.20233919 0)
(198.658893 0.320665657 0)
(198.616302 0.406213547 0)
(198.558842 0.455728866 0)
(198.493379 0.469807053 0)
(198.426434 0.451915688 0)
(198.363817 0.407408839 0)
(198.310451 0.343262383 0)
(198.270053 0.268602067 0)
(198.244749 0.195467688 0)
(198.234048 0.138230954 0)
(198.23389 0.111434177 0)
(198.236979 0.126721389 0)
(198.233717 0.189990157 0)
(198.213345 0.29977644 0)
(198.165574 0.447331983 0)
(198.08243 0.618440633 0)
(197.959537 0.796412475 0)
(197.796494 0.965201549 0)
(197.596478 1.11175853 0)
(197.365327 1.22725381 0)
(197.110426 1.30726602 0)
(196.839687 1.35130242 0)
(196.560766 1.3620935 0)
(196.280532 1.34500409 0)
(196.004679 1.3076942 0)
(195.737341 1.25992478 0)
(195.480659 1.21322141 0)
(195.234336 1.18005938 0)
(194.995357 1.17237441 0)
(194.758081 1.19950899 0)
(194.51486 1.26605947 0)
(194.257217 1.37032371 0)
(193.977402 1.50402154 0)
(193.669984 1.65362927 0)
(193.333034 1.80313266 0)
(192.96853 1.93747596 0)
(192.581845 2.04569415 0)
(192.180461 2.12279595 0)
(191.772324 2.16989634 0)
(191.364332 2.192712 0)
(190.961377 2.19908151 0)
(190.566112 2.19643426 0)
(190.179378 2.19001702 0)
(189.800977 2.1822764 0)
(189.430476 2.17329739 0)
(189.067745 2.1618381 0)
(188.713167 2.14640653 0)
(188.367541 2.1259788 0)
(188.031856 2.10023068 0)
(187.707063 2.06939175 0)
(187.393934 2.03394044 0)
(187.093029 1.99433389 0)
(186.804732 1.95086738 0)
(186.529315 1.9036599 0)
(186.266983 1.85270838 0)
(186.017905 1.79795095 0)
(185.78223 1.73930603 0)
(185.560087 1.67668333 0)
(185.351597 1.60997887 0)
(185.156888 1.53906781 0)
(184.97611 1.46380201 0)
(184.809457 1.38401179 0)
(184.657192 1.29950338 0)
(184.519653 1.21004467 0)
(184.397231 1.11528154 0)
(184.290274 1.0147158 0)
(184.198992 0.907932557 0)
(184.123563 0.794486351 0)
(184.064221 0.67389197 0)
(184.021177 0.545875762 0)
(183.994862 0.410500914 0)
(183.98596 0.268240201 0)
(183.995864 0.119965314 0)
(184.028757 -0.0338002498 0)
(184.085035 -0.189799083 0)
(184.161244 -0.347122415 0)
(184.261217 -0.507626582 0)
(184.386983 -0.671643583 0)
(184.538869 -0.838357599 0)
(184.717382 -1.00703317 0)
(184.923016 -1.1768719 0)
(185.155933 -1.34675844 0)
(185.416056 -1.51534103 0)
(185.703097 -1.68111502 0)
(186.016475 -1.84243954 0)
(186.35528 -1.99756708 0)
(186.718262 -2.14469442 0)
(187.103819 -2.28201634 0)
(187.509999 -2.40778035 0)
(187.934515 -2.52034419 0)
(188.374768 -2.61823301 0)
(188.827894 -2.70019256 0)
(189.290806 -2.76523524 0)
(189.760262 -2.8126765 0)
(190.232934 -2.84215896 0)
(190.705479 -2.85366299 0)
(191.174621 -2.84750307 0)
(191.63722 -2.82431072 0)
(192.090339 -2.78500519 0)
(192.531302 -2.73075443 0)
(192.957735 -2.66292905 0)
(193.367598 -2.58305214 0)
(193.759201 -2.49274788 0)
(194.131211 -2.39369156 0)
(194.482643 -2.28756317 0)
(194.812844 -2.17600603 0)
(195.121471 -2.06059183 0)
(195.408461 -1.9427924 0)
(195.673999 -1.82395848 0)
(195.918483 -1.70530507 0)
(196.142492 -1.58790305 0)
(196.346748 -1.47267611 0)
(196.53209 -1.36040206 0)
(196.699441 -1.25171801 0)
(196.849786 -1.14712815 0)
(196.984146 -1.04701363 0)
(197.103561 -0.951644048 0)
(197.209072 -0.861189752 0)
(197.301707 -0.775734495 0)
(197.382477 -0.695288145 0)
(197.45236 -0.619799058 0)
(197.512296 -0.549165901 0)
(197.563185 -0.483249583 0)
(197.605884 -0.421885603 0)
(197.641196 -0.364895624 0)
(197.66988 -0.312096859 0)
(197.692634 -0.263309728 0)
(197.71009 -0.218362584 0)
(197.722814 -0.177088993 0)
(197.731307 -0.139319186 0)
(197.736022 -0.104875039 0)
(197.737387 -0.0735679811 0)
(197.735798 -0.0451905043 0)
(197.731665 -0.0195183813 0)
(197.72547 0.003696105 0)
(197.717488 0.0249060097 0)
(197.707645 0.0440144317 0)
(197.696359 0.0609723739 0)
(197.683812 0.0759538185 0)
(197.67015 0.0891327857 0)
(197.655516 0.100666277 0)
(197.640043 0.110714672 0)
(197.623853 0.119427644 0)
(197.607063 0.126938314 0)
(197.589783 0.133365006 0)
(197.572115 0.138813004 0)
(197.554149 0.143376236 0)
(197.535968 0.14713877 0)
(197.517647 0.150176131 0)
(197.499247 0.152556446 0)
(197.480826 0.154341454 0)
(197.462431 0.155587361 0)
(197.444105 0.156345516 0)
(197.425883 0.156662941 0)
(197.407798 0.156582744 0)
(197.389876 0.156144443 0)
(197.37214 0.155384211 0)
(197.354612 0.154335089 0)
(197.337308 0.153027136 0)
(197.320243 0.151487578 0)
(197.30343 0.149740948 0)
(197.286881 0.147809236 0)
(197.270603 0.145712077 0)
(197.254604 0.143466979 0)
(197.238892 0.141089587 0)
(197.223471 0.138593961 0)
(197.208345 0.135992335 0)
(197.193518 0.133294757 0)
(197.178996 0.130509273 0)
(197.164774 0.127641046 0)
(197.150882 0.124695911 0)
(197.137235 0.121662735 0)
(197.124137 0.118584222 0)
(197.110566 0.115251083 0)
(197.100169 0.11247306 0)
(197.07827 0.106781418 0)
(197.648969 -0.02602763 0)
(197.657687 -0.0985412771 0)
(197.68697 -0.195317324 0)
(197.739932 -0.31134203 0)
(197.819372 -0.433052042 0)
(197.924452 -0.539676876 0)
(198.050321 -0.608277528 0)
(198.188098 -0.621634477 0)
(198.326121 -0.573641959 0)
(198.452173 -0.469669553 0)
(198.555686 -0.323596298 0)
(198.62902 -0.154014984 0)
(198.670095 0.0186727293 0)
(198.683761 0.177034148 0)
(198.671124 0.308656144 0)
(198.635997 0.404932541 0)
(198.584809 0.462035191 0)
(198.524557 0.48046727 0)
(198.461783 0.463782188 0)
(198.402353 0.417582652 0)
(198.351233 0.34928996 0)
(198.312153 0.268737695 0)
(198.287118 0.18888883 0)
(198.275738 0.125317736 0)
(198.274577 0.0943690838 0)
(198.276841 0.10995367 0)
(198.272935 0.179969704 0)
(198.252169 0.303813633 0)
(198.204713 0.47219356 0)
(198.123068 0.669203106 0)
(198.002989 0.875720592 0)
(197.843817 1.07299611 0)
(197.648204 1.24547989 0)
(197.421372 1.38240935 0)
(197.170147 1.47817958 0)
(196.902043 1.53186802 0)
(196.624497 1.54641238 0)
(196.344319 1.52787032 0)
(196.067255 1.48496894 0)
(195.797581 1.42886278 0)
(195.537648 1.3727795 0)
(195.28741 1.33115344 0)
(195.044115 1.31798849 0)
(194.802381 1.34452776 0)
(194.554812 1.41671865 0)
(194.293176 1.53326273 0)
(194.009915 1.68505956 0)
(193.69966 1.85652817 0)
(193.360344 2.02869736 0)
(192.993613 2.1833065 0)
(192.604406 2.30672191 0)
(192.199821 2.39246637 0)
(191.787588 2.44162273 0)
(191.374613 2.46113536 0)
(190.965982 2.46077319 0)
(190.564657 2.44991828 0)
(190.171794 2.43524917 0)
(189.787452 2.41988273 0)
(189.411347 2.40388982 0)
(189.04341 2.38561195 0)
(188.684009 2.36306081 0)
(188.333905 2.33486675 0)
(187.994043 2.30059371 0)
(187.665337 2.26055343 0)
(187.348537 2.21540301 0)
(187.044183 2.1657833 0)
(186.752637 2.11212778 0)
(186.47414 2.05463983 0)
(186.208864 1.99336335 0)
(185.956936 1.92826629 0)
(185.718464 1.85929201 0)
(185.493536 1.78637229 0)
(185.282235 1.70941795 0)
(185.084651 1.62830575 0)
(184.900896 1.54287139 0)
(184.73112 1.45290907 0)
(184.575526 1.35817243 0)
(184.434378 1.25837286 0)
(184.307984 1.15317377 0)
(184.196678 1.04221087 0)
(184.100803 0.925158521 0)
(184.020766 0.8018307 0)
(183.957179 0.672167219 0)
(183.91084 0.536267035 0)
(183.882496 0.394407401 0)
(183.872699 0.246765196 0)
(183.88088 0.0934589099 0)
(183.906995 -0.065096946 0)
(183.954562 -0.230238804 0)
(184.026225 -0.400205358 0)
(184.123053 -0.574167502 0)
(184.245614 -0.752135066 0)
(184.394647 -0.933664655 0)
(184.570978 -1.11793512 0)
(184.775288 -1.30394545 0)
(185.007983 -1.49044991 0)
(185.269217 -1.67594653 0)
(185.558887 -1.85872965 0)
(185.876571 -2.0369259 0)
(186.221474 -2.20852666 0)
(186.59241 -2.37143704 0)
(186.987782 -2.5235364 0)
(187.405577 -2.66274654 0)
(187.843372 -2.78710578 0)
(188.29837 -2.89484432 0)
(188.767443 -2.98445515 0)
(189.247189 -3.05475512 0)
(189.734019 -3.10493227 0)
(190.224233 -3.13457612 0)
(190.714122 -3.1436896 0)
(191.200052 -3.13268236 0)
(191.678558 -3.10234689 0)
(192.14642 -3.05381948 0)
(192.600726 -2.9885293 0)
(193.038926 -2.90813915 0)
(193.458863 -2.81448177 0)
(193.858784 -2.70949535 0)
(194.237351 -2.59516182 0)
(194.593619 -2.47345042 0)
(194.927018 -2.34626863 0)
(195.23732 -2.21542168 0)
(195.5246 -2.08258116 0)
(195.789197 -1.94926246 0)
(196.031672 -1.81681062 0)
(196.252769 -1.68639359 0)
(196.453371 -1.55900196 0)
(196.63447 -1.43545374 0)
(196.797132 -1.31640342 0)
(196.942469 -1.20235395 0)
(197.071615 -1.09367055 0)
(197.185708 -0.990595694 0)
(197.28587 -0.893264532 0)
(197.3732 -0.801720383 0)
(197.448759 -0.715929964 0)
(197.513566 -0.635797492 0)
(197.568588 -0.561177536 0)
(197.614748 -0.491886647 0)
(197.652908 -0.427712949 0)
(197.683879 -0.368424057 0)
(197.708418 -0.313773182 0)
(197.727234 -0.263502871 0)
(197.740997 -0.217351305 0)
(197.750342 -0.175065379 0)
(197.755853 -0.136412665 0)
(197.75803 -0.101181878 0)
(197.757269 -0.0691760441 0)
(197.75386 -0.040206259 0)
(197.748006 -0.0140911071 0)
(197.74014 0.00933514239 0)
(197.730592 0.0302428312 0)
(197.719468 0.0489732734 0)
(197.706958 0.0656736282 0)
(197.693227 0.0804806899 0)
(197.678438 0.0935463841 0)
(197.662743 0.105013471 0)
(197.646283 0.115020639 0)
(197.629186 0.123700943 0)
(197.611569 0.131177984 0)
(197.593542 0.137565821 0)
(197.5752 0.142968678 0)
(197.556633 0.147480703 0)
(197.537915 0.151186734 0)
(197.519115 0.154163347 0)
(197.500291 0.156479876 0)
(197.481492 0.158199359 0)
(197.462763 0.159379344 0)
(197.44414 0.160072532 0)
(197.425654 0.160327253 0)
(197.407334 0.160187823 0)
(197.389204 0.159694806 0)
(197.371282 0.158885218 0)
(197.353589 0.157792701 0)
(197.336139 0.156447683 0)
(197.318944 0.154877532 0)
(197.302017 0.153106723 0)
(197.285367 0.151157021 0)
(197.269002 0.149047688 0)
(197.252927 0.146795703 0)
(197.237148 0.144415983 0)
(197.221668 0.141921549 0)
(197.206491 0.13932357 0)
(197.191617 0.136631309 0)
(197.177051 0.133852339 0)
(197.162785 0.130991499 0)
(197.148846 0.128054878 0)
(197.135149 0.12503166 0)
(197.121991 0.12196806 0)
(197.108387 0.1186588 0)
(197.097938 0.115917965 0)
(197.076436 0.110348548 0)
(197.648727 -0.032622383 0)
(197.656066 -0.125120092 0)
(197.683842 -0.249976928 0)
(197.736345 -0.400522973 0)
(197.817402 -0.55918362 0)
(197.926797 -0.699195565 0)
(198.05974 -0.790843357 0)
(198.20678 -0.811556314 0)
(198.355179 -0.753030877 0)
(198.491406 -0.621877912 0)
(198.603757 -0.435860041 0)
(198.684328 -0.218779248 0)
(198.729761 0.00468844977 0)
(198.743503 0.211910036 0)
(198.72671 0.383644453 0)
(198.6856 0.508861711 0)
(198.627579 0.583326804 0)
(198.560392 0.607907762 0)
(198.491491 0.587178614 0)
(198.427628 0.528200822 0)
(198.374527 0.440273291 0)
(198.336467 0.335781716 0)
(198.31561 0.231204796 0)
(198.311207 0.146851308 0)
(198.319173 0.104261859 0)
(198.332251 0.121577901 0)
(198.340473 0.20879741 0)
(198.332235 0.364969791 0)
(198.296231 0.578138323 0)
(198.223533 0.827946405 0)
(198.108964 1.08999003 0)
(197.95156 1.34043586 0)
(197.754217 1.55963963 0)
(197.522802 1.73412977 0)
(197.265033 1.85698822 0)
(196.989412 1.92713662 0)
(196.704366 1.94821124 0)
(196.417601 1.92760299 0)
(196.135592 1.87593582 0)
(195.863092 1.80686871 0)
(195.602628 1.73677482 0)
(195.354042 1.68373248 0)
(195.114205 1.66546128 0)
(194.877123 1.69630955 0)
(194.634573 1.7839595 0)
(194.377334 1.92690284 0)
(194.096824 2.1137383 0)
(193.786816 2.32488478 0)
(193.44474 2.53652382 0)
(193.072211 2.72577417 0)
(192.674577 2.87559025 0)
(192.259645 2.97790185 0)
(191.835968 3.03410058 0)
(191.411215 3.05291607 0)
(190.991052 3.0466299 0)
(190.578792 3.02706656 0)
(190.175728 3.00268915 0)
(189.781899 2.97750732 0)
(189.396926 2.9517024 0)
(189.020626 2.92326404 0)
(188.653282 2.88974386 0)
(188.295597 2.84945505 0)
(187.948486 2.80188115 0)
(187.61284 2.74745349 0)
(187.289381 2.68704934 0)
(186.978605 2.62153442 0)
(186.680817 2.55151572 0)
(186.396192 2.47730585 0)
(186.124825 2.39900671 0)
(185.866773 2.31661226 0)
(185.622068 2.23007297 0)
(185.390731 2.13931279 0)
(185.172779 2.04421825 0)
(184.968245 1.94462297 0)
(184.777189 1.84030037 0)
(184.599718 1.73096619 0)
(184.435995 1.6162863 0)
(184.286252 1.49588569 0)
(184.150781 1.36935772 0)
(184.029938 1.23628029 0)
(183.92413 1.09624931 0)
(183.833836 0.948906126 0)
(183.759608 0.793931563 0)
(183.702039 0.630966315 0)
(183.66164 0.45962458 0)
(183.638893 0.279617489 0)
(183.63549 0.0910204281 0)
(183.655186 -0.105118377 0)
(183.698395 -0.307028923 0)
(183.764678 -0.514897145 0)
(183.855847 -0.72880577 0)
(183.973465 -0.948284113 0)
(184.118771 -1.17249105 0)
(184.292859 -1.40033994 0)
(184.496673 -1.63051566 0)
(184.730931 -1.86142075 0)
(184.99608 -2.0911612 0)
(185.292254 -2.31758 0)
(185.61922 -2.53829666 0)
(185.976312 -2.75075421 0)
(186.362392 -2.95228453 0)
(186.775824 -3.14018793 0)
(187.214457 -3.31182116 0)
(187.675636 -3.46469131 0)
(188.156234 -3.59655116 0)
(188.652706 -3.70548994 0)
(189.161169 -3.79001333 0)
(189.677497 -3.8491069 0)
(190.197427 -3.88227804 0)
(190.716681 -3.88957322 0)
(191.23108 -3.87156959 0)
(191.736655 -3.82934214 0)
(192.229746 -3.76440962 0)
(192.707077 -3.67866385 0)
(193.165821 -3.57428847 0)
(193.603629 -3.45367225 0)
(194.018648 -3.31932292 0)
(194.409517 -3.17378585 0)
(194.775343 -3.01957116 0)
(195.11567 -2.8590916 0)
(195.430429 -2.69461261 0)
(195.719896 -2.52821483 0)
(195.984633 -2.36176839 0)
(196.225441 -2.19691826 0)
(196.443306 -2.03507905 0)
(196.639355 -1.87743769 0)
(196.814812 -1.72496232 0)
(196.970963 -1.57841584 0)
(197.109125 -1.43837257 0)
(197.230616 -1.30523673 0)
(197.336742 -1.17926212 0)
(197.428771 -1.06057224 0)
(197.507927 -0.94917993 0)
(197.575378 -0.845005644 0)
(197.63223 -0.74789423 0)
(197.679526 -0.657630824 0)
(197.718242 -0.573956092 0)
(197.749288 -0.496579864 0)
(197.77351 -0.425193084 0)
(197.791694 -0.359480595 0)
(197.804554 -0.299134462 0)
(197.812719 -0.243861993 0)
(197.816718 -0.193384413 0)
(197.817003 -0.147432084 0)
(197.813984 -0.10574108 0)
(197.808057 -0.0680490447 0)
(197.799599 -0.0340809269 0)
(197.789028 -0.00351070225 0)
(197.777038 0.0239587688 0)
(197.763643 0.048541971 0)
(197.748942 0.070438759 0)
(197.733127 0.0898516957 0)
(197.716383 0.106980146 0)
(197.698863 0.122021305 0)
(197.680697 0.135159395 0)
(197.662003 0.146567123 0)
(197.642889 0.156406243 0)
(197.623449 0.164825702 0)
(197.603771 0.171961835 0)
(197.583932 0.177939093 0)
(197.564002 0.182870569 0)
(197.544044 0.186858728 0)
(197.524112 0.189996304 0)
(197.504255 0.19236721 0)
(197.484515 0.194047421 0)
(197.464929 0.195105794 0)
(197.445529 0.19560482 0)
(197.42634 0.195601275 0)
(197.407385 0.195146779 0)
(197.388683 0.194288277 0)
(197.370249 0.193068437 0)
(197.352095 0.191525999 0)
(197.334234 0.189696063 0)
(197.31667 0.187610347 0)
(197.299413 0.18529742 0)
(197.282466 0.182782911 0)
(197.265832 0.180089714 0)
(197.249515 0.177238172 0)
(197.233517 0.174246237 0)
(197.217837 0.171129593 0)
(197.202476 0.167901721 0)
(197.187433 0.164573851 0)
(197.172711 0.161155232 0)
(197.158298 0.157651903 0)
(197.14422 0.154071762 0)
(197.130385 0.150402732 0)
(197.117095 0.146702662 0)
(197.103299 0.142727048 0)
(197.092715 0.139454185 0)
(197.070414 0.132832381 0)
(197.648849 -0.0377149061 0)
(197.656929 -0.146434895 0)
(197.68603 -0.29365521 0)
(197.740366 -0.471570092 0)
(197.823519 -0.660144054 0)
(197.934996 -0.828543433 0)
(198.069856 -0.942105734 0)
(198.218738 -0.974002377 0)
(198.369193 -0.913641389 0)
(198.508015 -0.767768075 0)
(198.623683 -0.556508949 0)
(198.708251 -0.307716712 0)
(198.758371 -0.05135878 0)
(198.776911 0.18530558 0)
(198.764365 0.382512289 0)
(198.726858 0.52767186 0)
(198.6719 0.615338924 0)
(198.607211 0.646176155 0)
(198.540326 0.625105027 0)
(198.478114 0.55988765 0)
(198.426455 0.46090905 0)
(198.389845 0.342184013 0)
(198.370873 0.222507368 0)
(198.369396 0.1250199 0)
(198.381551 0.0744010733 0)
(198.399411 0.0919417837 0)
(198.412115 0.190004588 0)
(198.407876 0.368455135 0)
(198.375765 0.61418995 0)
(198.307173 0.904010558 0)
(198.196919 1.20966767 0)
(198.043759 1.50328337 0)
(197.850197 1.76164949 0)
(197.621732 1.96864922 0)
(197.365822 2.11580286 0)
(197.090837 2.20148771 0)
(196.80519 2.22962517 0)
(196.516656 2.20853764 0)
(196.231854 2.15032514 0)
(195.955761 2.07064425 0)
(195.691182 1.98837506 0)
(195.438222 1.92451418 0)
(195.193939 1.8998425 0)
(194.952412 1.93144983 0)
(194.705403 2.02885144 0)
(194.443612 2.1909082 0)
(194.158343 2.40480796 0)
(193.8432 2.64787826 0)
(193.495401 2.89210309 0)
(193.116342 3.11023172 0)
(192.71122 3.2816995 0)
(192.287829 3.39654426 0)
(191.854865 3.4561673 0)
(191.420255 3.4709134 0)
(190.989985 3.45556497 0)
(190.567663 3.42448297 0)
(190.154816 3.38802943 0)
(189.751639 3.35117269 0)
(189.357836 3.31419741 0)
(188.973261 3.27467916 0)
(188.598207 3.22963172 0)
(188.233379 3.17699311 0)
(187.879685 3.11614505 0)
(187.538002 3.04765025 0)
(187.209018 2.97263658 0)
(186.893184 2.89222873 0)
(186.59074 2.80723637 0)
(186.301783 2.71810436 0)
(186.026324 2.62501292 0)
(185.76433 2.52800385 0)
(185.515745 2.42706019 0)
(185.280501 2.32212734 0)
(185.058536 2.21309944 0)
(184.849805 2.09979997 0)
(184.6543 1.98197319 0)
(184.472062 1.8592886 0)
(184.3032 1.7313537 0)
(184.147895 1.59772924 0)
(184.006405 1.4579448 0)
(183.87907 1.31151658 0)
(183.766311 1.15796976 0)
(183.668636 0.996860944 0)
(183.586663 0.82779438 0)
(183.521121 0.650444954 0)
(183.472852 0.464611368 0)
(183.442956 0.270342974 0)
(183.432403 0.0679775201 0)
(183.444019 -0.142846701 0)
(183.478592 -0.362392201 0)
(183.536854 -0.590065302 0)
(183.620614 -0.82536425 0)
(183.731525 -1.06776164 0)
(183.871087 -1.31646052 0)
(184.040725 -1.57033318 0)
(184.241746 -1.82791123 0)
(184.475242 -2.0873704 0)
(184.742017 -2.3465268 0)
(185.04253 -2.60285776 0)
(185.376818 -2.85353929 0)
(185.744421 -3.09549952 0)
(186.144321 -3.32549451 0)
(186.574891 -3.54020547 0)
(187.033874 -3.73635307 0)
(187.518381 -3.91082318 0)
(188.024922 -4.06079598 0)
(188.549481 -4.18386971 0)
(189.087598 -4.27816914 0)
(189.634506 -4.34243086 0)
(190.18526 -4.37605838 0)
(190.734899 -4.37914316 0)
(191.278587 -4.35245058 0)
(191.811763 -4.29737302 0)
(192.330256 -4.21585476 0)
(192.830383 -4.11029568 0)
(193.309019 -3.98344177 0)
(193.763634 -3.83827047 0)
(194.192299 -3.67787809 0)
(194.59368 -3.50537595 0)
(194.966994 -3.32379918 0)
(195.311962 -3.13603131 0)
(195.62875 -2.9447458 0)
(195.917901 -2.75236448 0)
(196.180268 -2.56103151 0)
(196.416949 -2.37260131 0)
(196.629224 -2.18863825 0)
(196.818504 -2.01042553 0)
(196.986278 -1.83898112 0)
(197.134074 -1.67507876 0)
(197.263425 -1.51927217 0)
(197.37584 -1.37192078 0)
(197.472784 -1.23321605 0)
(197.555663 -1.10320681 0)
(197.625812 -0.981823261 0)
(197.684487 -0.868899505 0)
(197.732862 -0.764194459 0)
(197.772029 -0.667410179 0)
(197.802993 -0.578207337 0)
(197.826676 -0.496218626 0)
(197.843916 -0.421059783 0)
(197.855466 -0.352337826 0)
(197.862009 -0.289657762 0)
(197.86418 -0.232627585 0)
(197.862583 -0.180860576 0)
(197.857785 -0.133976035 0)
(197.850279 -0.0916036682 0)
(197.840474 -0.0533892816 0)
(197.828736 -0.0190070586 0)
(197.815478 0.0118483174 0)
(197.800871 0.0394831783 0)
(197.784872 0.0641211809 0)
(197.76776 0.0859979667 0)
(197.749726 0.105348572 0)
(197.730929 0.122383165 0)
(197.711513 0.137299232 0)
(197.691606 0.150283496 0)
(197.671319 0.161510617 0)
(197.650754 0.171143481 0)
(197.63 0.179332889 0)
(197.609136 0.18621759 0)
(197.588234 0.19192475 0)
(197.567355 0.196570469 0)
(197.546551 0.200260431 0)
(197.525869 0.203090692 0)
(197.505347 0.205148476 0)
(197.485019 0.206512962 0)
(197.464912 0.207256006 0)
(197.44505 0.20744281 0)
(197.425451 0.207132508 0)
(197.406132 0.206378681 0)
(197.387106 0.205229818 0)
(197.368384 0.203729722 0)
(197.349976 0.201917874 0)
(197.331888 0.199829764 0)
(197.314127 0.197497192 0)
(197.296696 0.194948555 0)
(197.279598 0.192209114 0)
(197.262835 0.189301247 0)
(197.246408 0.186244693 0)
(197.230315 0.18305676 0)
(197.214555 0.179752504 0)
(197.199126 0.176344872 0)
(197.184025 0.172844728 0)
(197.169249 0.169261229 0)
(197.154788 0.165600523 0)
(197.140661 0.161871434 0)
(197.126776 0.158062071 0)
(197.113431 0.154236193 0)
(197.099609 0.150143347 0)
(197.088984 0.146800812 0)
(197.067071 0.140105565 0)
(197.648915 -0.0431755333 0)
(197.657461 -0.169452329 0)
(197.687561 -0.341496108 0)
(197.743646 -0.550277532 0)
(197.829595 -0.772579526 0)
(197.945161 -0.972263562 0)
(198.085391 -1.10839414 0)
(198.24057 -1.14907233 0)
(198.397667 -1.08143748 0)
(198.542873 -0.913025799 0)
(198.664153 -0.667198697 0)
(198.752992 -0.376583274 0)
(198.804947 -0.0763149145 0)
(198.824363 0.201974297 0)
(198.813675 0.434229656 0)
(198.777111 0.605337361 0)
(198.722192 0.708983819 0)
(198.657352 0.745875183 0)
(198.590736 0.721616034 0)
(198.529756 0.645142831 0)
(198.480721 0.528495046 0)
(198.448333 0.387972592 0)
(198.434834 0.24552489 0)
(198.439331 0.128472343 0)
(198.457671 0.06603375 0)
(198.482402 0.0833583409 0)
(198.503179 0.195160426 0)
(198.50787 0.401501128 0)
(198.484451 0.687238432 0)
(198.423269 1.02539436 0)
(198.318535 1.38298195 0)
(198.168793 1.72730584 0)
(197.97659 2.03105281 0)
(197.747648 2.27518611 0)
(197.489783 2.44960155 0)
(197.211812 2.55221158 0)
(196.922632 2.58739985 0)
(196.630488 2.56467853 0)
(196.342366 2.49797325 0)
(196.063435 2.40540381 0)
(195.796503 2.30894292 0)
(195.541549 2.23315534 0)
(195.295444 2.20247348 0)
(195.052052 2.23710172 0)
(194.80287 2.34842239 0)
(194.538261 2.53534578 0)
(194.249136 2.78308738 0)
(193.928724 3.06526568 0)
(193.573989 3.34916078 0)
(193.186244 3.6028377 0)
(192.770799 3.80207212 0)
(192.335714 3.93496991 0)
(191.890058 4.00292794 0)
(191.442181 4.01787825 0)
(190.998476 3.99706471 0)
(190.56291 3.95736203 0)
(190.137279 3.91105409 0)
(189.721956 3.86414607 0)
(189.316741 3.817144 0)
(188.921523 3.7673362 0)
(188.536596 3.71130333 0)
(188.162647 3.64667398 0)
(187.800556 3.57275503 0)
(187.45116 3.4902412 0)
(187.115093 3.40050081 0)
(186.792734 3.30490738 0)
(186.484233 3.20446687 0)
(186.189582 3.09975151 0)
(185.908676 2.99101194 0)
(185.641356 2.87832288 0)
(185.387441 2.76167664 0)
(185.14674 2.64100928 0)
(184.919071 2.5161864 0)
(184.704282 2.38698221 0)
(184.502265 2.2530714 0)
(184.312979 2.11403655 0)
(184.136469 1.96938522 0)
(183.972869 1.81856955 0)
(183.822415 1.66100499 0)
(183.685446 1.49608846 0)
(183.562411 1.32321715 0)
(183.453871 1.1418074 0)
(183.360509 0.951312445 0)
(183.283138 0.751237546 0)
(183.222695 0.541153514 0)
(183.180271 0.320728904 0)
(183.157063 0.0896066852 0)
(183.156863 -0.152099637 0)
(183.180635 -0.404208766 0)
(183.228888 -0.666460158 0)
(183.303378 -0.938417845 0)
(183.405995 -1.21943971 0)
(183.538632 -1.5085648 0)
(183.70312 -1.80446489 0)
(183.901181 -2.10542701 0)
(184.134342 -2.40931948 0)
(184.403852 -2.71356793 0)
(184.710578 -3.01516362 0)
(185.054912 -3.31070081 0)
(185.436658 -3.5964407 0)
(185.854948 -3.86840425 0)
(186.308169 -4.122493 0)
(186.79392 -4.35463315 0)
(187.309004 -4.56093658 0)
(187.849464 -4.737869 0)
(188.410658 -4.88241355 0)
(188.987385 -4.99221662 0)
(189.574036 -5.06570373 0)
(190.164783 -5.10215457 0)
(190.753773 -5.10173129 0)
(191.335326 -5.06545793 0)
(191.904116 -4.99515442 0)
(192.455323 -4.89333231 0)
(192.984754 -4.7630628 0)
(193.488925 -4.60782884 0)
(193.965093 -4.43137276 0)
(194.411261 -4.23754963 0)
(194.82615 -4.03019476 0)
(195.209142 -3.81301046 0)
(195.560205 -3.58947525 0)
(195.879816 -3.36277651 0)
(196.168866 -3.13576545 0)
(196.42858 -2.91093222 0)
(196.660433 -2.6903984 0)
(196.866075 -2.4759235 0)
(197.047266 -2.26892231 0)
(197.205818 -2.0704898 0)
(197.343557 -1.88143108 0)
(197.462275 -1.70229409 0)
(197.563712 -1.53340279 0)
(197.649528 -1.37489007 0)
(197.721295 -1.22672914 0)
(197.780481 -1.08876272 0)
(197.828452 -0.960729634 0)
(197.866466 -0.84228813 0)
(197.895676 -0.733036361 0)
(197.917139 -0.632530874 0)
(197.931814 -0.540302814 0)