/*--------------------------------*- C++ -*----------------------------------*\
| =========                 |                                                 |
| \\      /  F ield         | OpenFOAM: The Open Source CFD Toolbox           |
|  \\    /   O peration     | Version:  v2012                                 |
|   \\  /    A nd           | Website:  www.openfoam.com                      |
|    \\/     M anipulation  |                                                 |
\*---------------------------------------------------------------------------*/
FoamFile
{
    version     2.0;
    format      ascii;
    class       volVectorField;
    location    "2.94";
    object      HbyA;
}
// * * * * * * * * * * * * * * * * * * * * * * * * * * * * * * * * * * * * * //

dimensions      [0 1 -1 0 0 0 0];


internalField   nonuniform List<vector> 
28416
(
(0.100000618 -6.35909338e-06 0)
(0.100007351 -2.30498211e-05 0)
(0.100023213 -4.5538645e-05 0)
(0.100050419 -7.26261811e-05 0)
(0.100089645 -0.000100555685 0)
(0.100140034 -0.000123939652 0)
(0.100199022 -0.000137110313 0)
(0.100262327 -0.000136012335 0)
(0.100324563 -0.000119513002 0)
(0.100380272 -8.93761173e-05 0)
(0.100424714 -4.92764603e-05 0)
(0.100453934 -3.4161552e-06 0)
(0.100469123 4.52216385e-05 0)
(0.10047399 9.09510966e-05 0)
(0.100469052 0.000128293938 0)
(0.100455193 0.000154656142 0)
(0.10043485 0.000169043764 0)
(0.100410649 0.00017165399 0)
(0.100385032 0.000163710769 0)
(0.100360214 0.000147126133 0)
(0.10033801 0.000124356324 0)
(0.100319581 9.85236841e-05 0)
(0.100305397 7.36361909e-05 0)
(0.100295261 5.43864743e-05 0)
(0.100287926 4.52737035e-05 0)
(0.10028062 4.9613788e-05 0)
(0.100269136 6.89225081e-05 0)
(0.100248773 0.000102635911 0)
(0.100215458 0.000148069097 0)
(0.100166386 0.000200860285 0)
(0.100100256 0.000255844308 0)
(0.10001727 0.000307980895 0)
(0.0999189228 0.000353058266 0)
(0.0998076107 0.000388093655 0)
(0.0996862047 0.000411469028 0)
(0.0995576997 0.000422887151 0)
(0.0994249676 0.000423238018 0)
(0.0992905952 0.000414441384 0)
(0.0991567521 0.000399292139 0)
(0.0990250331 0.000381293461 0)
(0.0988962543 0.000364430615 0)
(0.0987702366 0.000352831182 0)
(0.0986456725 0.000350285826 0)
(0.0985201897 0.00035966301 0)
(0.0983906834 0.000382322994 0)
(0.0982538871 0.000417694186 0)
(0.0981070447 0.000463187429 0)
(0.0979484975 0.000514563323 0)
(0.0977780209 0.000566733097 0)
(0.0975968267 0.000614809893 0)
(0.0974072502 0.00065511058 0)
(0.0972122256 0.000685802124 0)
(0.0970147086 0.000707004963 0)
(0.0968172009 0.000720362305 0)
(0.0966214862 0.000728272545 0)
(0.0964286067 0.000733079716 0)
(0.0962390326 0.000736487905 0)
(0.0960529247 0.000739336084 0)
(0.0958703816 0.000741709894 0)
(0.0956915978 0.00074325025 0)
(0.0955169119 0.00074348595 0)
(0.0953467691 0.000742062907 0)
(0.0951816468 0.000738825937 0)
(0.0950219865 0.000733783195 0)
(0.0948681553 0.000727018599 0)
(0.094720439 0.000718611813 0)
(0.0945790551 0.000708596026 0)
(0.0944441723 0.000696953634 0)
(0.0943159259 0.000683633091 0)
(0.0941944277 0.000668568949 0)
(0.0940797714 0.000651694917 0)
(0.0939720359 0.000632948457 0)
(0.0938712913 0.000612270433 0)
(0.0937776054 0.000589604002 0)
(0.0936910532 0.000564894994 0)
(0.0936117298 0.000538093913 0)
(0.0935397682 0.000509156665 0)
(0.0934753892 0.000478041412 0)
(0.0934189008 0.000444672276 0)
(0.0933705013 0.000408923613 0)
(0.093330327 0.000370714344 0)
(0.0932986175 0.000329907535 0)
(0.0932755736 0.00028630494 0)
(0.0932612733 0.000239707013 0)
(0.093255654 0.000189947383 0)
(0.093258511 0.00013707565 0)
(0.0932695389 8.14087984e-05 0)
(0.0932869326 2.38756353e-05 0)
(0.0933120657 -3.20399715e-05 0)
(0.0933499969 -8.71698619e-05 0)
(0.0934020028 -0.000143302349 0)
(0.0934667847 -0.000200738989 0)
(0.0935440371 -0.000259217911 0)
(0.0936341261 -0.000318551564 0)
(0.0937371288 -0.00037848575 0)
(0.0938529038 -0.000438614565 0)
(0.0939812954 -0.000498449166 0)
(0.0941220848 -0.000557459802 0)
(0.0942749187 -0.000615078776 0)
(0.0944393023 -0.000670704957 0)
(0.0946146013 -0.000723715745 0)
(0.0948000384 -0.000773482076 0)
(0.0949946953 -0.000819386829 0)
(0.0951975218 -0.000860846429 0)
(0.095407349 -0.000897333124 0)
(0.0956229052 -0.000928395304 0)
(0.0958428358 -0.000953674109 0)
(0.0960657264 -0.000972915322 0)
(0.0962901297 -0.000985976254 0)
(0.0965145939 -0.00099282791 0)
(0.0967376925 -0.000993552892 0)
(0.0969580522 -0.000988339578 0)
(0.0971743802 -0.000977473072 0)
(0.0973854865 -0.000961323378 0)
(0.0975903023 -0.000940331399 0)
(0.0977878932 -0.000914993426 0)
(0.0979774681 -0.000885844849 0)
(0.0981583821 -0.00085344393 0)
(0.0983301359 -0.00081835635 0)
(0.0984923712 -0.000781141097 0)
(0.0986448627 -0.000742338217 0)
(0.0987875079 -0.000702458639 0)
(0.0989203153 -0.000661976173 0)
(0.0990433913 -0.000621321633 0)
(0.099156927 -0.000580878993 0)
(0.0992611845 -0.000540983403 0)
(0.0993564845 -0.000501920865 0)
(0.0994431937 -0.000463929313 0)
(0.0995217136 -0.000427200627 0)
(0.0995924705 -0.000391883216 0)
(0.0996559072 -0.000358085267 0)
(0.0997124759 -0.000325878826 0)
(0.0997626319 -0.000295304393 0)
(0.0998068277 -0.00026637527 0)
(0.0998455085 -0.000239081286 0)
(0.09987911 -0.000213392648 0)
(0.0999080572 -0.000189264703 0)
(0.0999327622 -0.000166642798 0)
(0.0999536213 -0.000145466173 0)
(0.0999710149 -0.000125671729 0)
(0.0999853066 -0.000107199116 0)
(0.0999968415 -8.9996914e-05 0)
(0.100005941 -7.40287262e-05 0)
(0.100012891 -5.92767425e-05 0)
(0.100017934 -4.57375734e-05 0)
(0.100021249 -3.34048534e-05 0)
(0.100022961 -2.2244954e-05 0)
(0.10002315 -1.21844501e-05 0)
(0.100021813 -3.07367982e-06 0)
(0.100019337 5.35368782e-06 0)
(0.100016164 1.29452665e-05 0)
(0.100012232 1.96609988e-05 0)
(0.100007492 2.55876464e-05 0)
(0.100002035 3.08056869e-05 0)
(0.0999959459 3.53855232e-05 0)
(0.0999892975 3.93965544e-05 0)
(0.0999821692 4.29010511e-05 0)
(0.0999746386 4.59522966e-05 0)
(0.0999667756 4.85956232e-05 0)
(0.0999586427 5.08698061e-05 0)
(0.0999502955 5.28083897e-05 0)
(0.0999417831 5.44406221e-05 0)
(0.0999331483 5.57923116e-05 0)
(0.099924428 5.68866421e-05 0)
(0.0999156544 5.77448696e-05 0)
(0.0999068548 5.83868212e-05 0)
(0.0998980531 5.88311826e-05 0)
(0.0998892697 5.90956164e-05 0)
(0.0998805226 5.91967791e-05 0)
(0.0998718275 5.91502943e-05 0)
(0.0998631984 5.89707126e-05 0)
(0.0998546478 5.86714702e-05 0)
(0.0998461864 5.82648518e-05 0)
(0.0998378242 5.77619615e-05 0)
(0.0998295698 5.71727152e-05 0)
(0.0998214305 5.65058663e-05 0)
(0.099813413 5.57690744e-05 0)
(0.0998055224 5.49690267e-05 0)
(0.0997977633 5.41116083e-05 0)
(0.0997901394 5.32021082e-05 0)
(0.0997826543 5.22452102e-05 0)
(0.0997753115 5.12449199e-05 0)
(0.0997681151 5.02046836e-05 0)
(0.0997610647 4.91271657e-05 0)
(0.0997541761 4.80154419e-05 0)
(0.0997474129 4.68668396e-05 0)
(0.0997409259 4.56978607e-05 0)
(0.099734244 4.44303295e-05 0)
(0.0997291322 4.3368073e-05 0)
(0.0997201058 4.11318649e-05 0)
(0.100000225 -1.18849648e-05 0)
(0.100004601 -4.37280441e-05 0)
(0.10001741 -8.5979502e-05 0)
(0.100042318 -0.000136404083 0)
(0.100081084 -0.000188653201 0)
(0.100133471 -0.000233442455 0)
(0.100197069 -0.000260861894 0)
(0.100267245 -0.000263686243 0)
(0.100337804 -0.000239620313 0)
(0.100402223 -0.000191368659 0)
(0.10045495 -0.00012520214 0)
(0.100492789 -4.89762374e-05 0)
(0.100514104 2.9805123e-05 0)
(0.100518221 0.00010236976 0)
(0.100507444 0.000162234296 0)
(0.100485774 0.000205515267 0)
(0.100456774 0.000230566674 0)
(0.100423887 0.000237689794 0)
(0.100390371 0.00022863881 0)
(0.100359121 0.000206122234 0)
(0.100332582 0.000173669118 0)
(0.100312585 0.000135896305 0)
(0.100300154 9.88951253e-05 0)
(0.100294995 6.99368905e-05 0)
(0.10029502 5.63793259e-05 0)
(0.100296527 6.4113745e-05 0)
(0.100294676 9.61239167e-05 0)
(0.100284078 0.000151668919 0)
(0.100259598 0.000226322484 0)
(0.100217288 0.000312892181 0)
(0.100155013 0.000402934373 0)
(0.100072629 0.00048833149 0)
(0.0999717773 0.000562482069 0)
(0.0998554186 0.000620919313 0)
(0.0997272742 0.000661406295 0)
(0.099591314 0.000683693345 0)
(0.0994513681 0.000689161244 0)
(0.0993108627 0.000680523513 0)
(0.0991726255 0.000661654955 0)
(0.0990386957 0.000637493625 0)
(0.0989101057 0.000613870745 0)
(0.0987866626 0.000597098494 0)
(0.0986668121 0.00059321641 0)
(0.0985476905 0.000606952174 0)
(0.0984254441 0.000640632115 0)
(0.098295824 0.00069339559 0)
(0.0981549692 0.000761053533 0)
(0.0980002011 0.00083676364 0)
(0.0978306077 0.000912423297 0)
(0.0976472353 0.000980414633 0)
(0.0974528189 0.00103518928 0)
(0.0972511314 0.00107422111 0)
(0.0970461569 0.00109807347 0)
(0.0968413373 0.00110963815 0)
(0.0966390986 0.00111288083 0)
(0.096440746 0.00111156047 0)
(0.0962466812 0.0011083319 0)
(0.096056797 0.0011044331 0)
(0.0958708742 0.00109990707 0)
(0.0956888535 0.00109412533 0)
(0.0955109316 0.00108633271 0)
(0.0953375145 0.00107601094 0)
(0.0951691007 0.00106299576 0)
(0.0950061668 0.00104740319 0)
(0.0948490992 0.00102947526 0)
(0.094698178 0.0010094432 0)
(0.0945535959 0.000987456387 0)
(0.0944154886 0.000963574971 0)
(0.0942839597 0.000937797347 0)
(0.0941590955 0.00091009215 0)
(0.0940409705 0.000880418041 0)
(0.0939296506 0.000848729282 0)
(0.0938251975 0.000814973209 0)
(0.0937276759 0.000779086593 0)
(0.0936371621 0.000740994423 0)
(0.093553755 0.000700610792 0)
(0.0934775865 0.000657837576 0)
(0.0934088282 0.000612557266 0)
(0.0933476777 0.000564590593 0)
(0.0932943119 0.000513685342 0)
(0.0932488376 0.000459631481 0)
(0.0932113453 0.000402203501 0)
(0.0931819521 0.00034115576 0)
(0.0931607652 0.000276349737 0)
(0.0931480025 0.000207817435 0)
(0.0931440061 0.000135798226 0)
(0.0931494725 6.07334611e-05 0)
(0.0931663271 -1.71117013e-05 0)
(0.0931940791 -9.60868482e-05 0)
(0.0932318173 -0.000175731076 0)
(0.0932814753 -0.000256983847 0)
(0.0933440749 -0.000340012878 0)
(0.0934197791 -0.0004244048 0)
(0.0935088437 -0.000509786931 0)
(0.0936115196 -0.00059575476 0)
(0.0937278903 -0.000681743357 0)
(0.0938579213 -0.000767068194 0)
(0.0940014713 -0.00085096742 0)
(0.0941582536 -0.000932610349 0)
(0.0943278163 -0.00101111243 0)
(0.0945095364 -0.00108556107 0)
(0.0947026151 -0.00115504278 0)
(0.0949060777 -0.00121867095 0)
(0.0951187805 -0.0012756149 0)
(0.0953394245 -0.00132512879 0)
(0.0955665747 -0.00136657857 0)
(0.0957986858 -0.00139946523 0)
(0.0960341326 -0.00142344316 0)
(0.0962712457 -0.00143833235 0)
(0.0965083484 -0.0014441237 0)
(0.0967437956 -0.00144097712 0)
(0.0969760102 -0.0014292129 0)
(0.0972035163 -0.00140929679 0)
(0.0974249675 -0.0013818203 0)
(0.0976391688 -0.00134747736 0)
(0.0978450922 -0.00130703891 0)
(0.0980418855 -0.00126132695 0)
(0.0982288746 -0.00121118921 0)
(0.0984055601 -0.00115747571 0)
(0.0985716099 -0.00110101785 0)
(0.0987268471 -0.00104261071 0)
(0.0988712355 -0.000982998814 0)
(0.0990048638 -0.000922865386 0)
(0.0991279282 -0.000862824964 0)
(0.0992407151 -0.000803419153 0)
(0.0993435847 -0.000745115084 0)
(0.099436955 -0.000688306113 0)
(0.0995212874 -0.000633314399 0)
(0.0995970739 -0.000580394878 0)
(0.0996648259 -0.000529740254 0)
(0.0997250641 -0.000481486805 0)
(0.0997783102 -0.000435720616 0)
(0.0998250805 -0.000392483975 0)
(0.0998658808 -0.000351781799 0)
(0.0999012022 -0.000313587901 0)
(0.0999315175 -0.000277850964 0)
(0.0999572783 -0.000244500578 0)
(0.0999789139 -0.000213453484 0)
(0.09999683 -0.000184619433 0)
(0.100011406 -0.000157905927 0)
(0.100022993 -0.000133222097 0)
(0.10003191 -0.000110481091 0)
(0.100038441 -8.95986982e-05 0)
(0.100042837 -7.04890228e-05 0)
(0.100045326 -5.30619428e-05 0)
(0.100046124 -3.72220523e-05 0)
(0.100045429 -2.28643647e-05 0)
(0.100043449 -9.87543486e-06 0)
(0.1000404 1.87006671e-06 0)
(0.100036325 1.26013419e-05 0)
(0.100031319 2.22693547e-05 0)
(0.100025598 3.08493196e-05 0)
(0.100019251 3.84292673e-05 0)
(0.100012351 4.50972463e-05 0)
(0.10000497 5.09326941e-05 0)
(0.0999971723 5.60167561e-05 0)
(0.09998902 6.04251607e-05 0)
(0.0999805716 6.42252612e-05 0)
(0.0999718812 6.74769229e-05 0)
(0.0999629991 7.02334145e-05 0)
(0.0999539712 7.25422586e-05 0)
(0.0999448385 7.44459894e-05 0)
(0.0999356374 7.5982818e-05 0)
(0.0999263997 7.71872126e-05 0)
(0.0999171533 7.80904104e-05 0)
(0.0999079221 7.87208476e-05 0)
(0.099898727 7.9104504e-05 0)
(0.099889586 7.92651705e-05 0)
(0.0998805148 7.92246573e-05 0)
(0.0998715267 7.90029569e-05 0)
(0.0998626335 7.86183729e-05 0)
(0.099853845 7.80876204e-05 0)
(0.09984517 7.74259087e-05 0)
(0.0998366159 7.66470128e-05 0)
(0.0998281889 7.57633438e-05 0)
(0.0998198945 7.47860286e-05 0)
(0.0998117371 7.37250016e-05 0)
(0.0998037204 7.25891204e-05 0)
(0.0997958476 7.1386301e-05 0)
(0.099788121 7.01236565e-05 0)
(0.0997805432 6.88073776e-05 0)
(0.0997731157 6.74425475e-05 0)
(0.0997658414 6.60332371e-05 0)
(0.0997587181 6.45820591e-05 0)
(0.0997517602 6.30919654e-05 0)
(0.0997449254 6.15573228e-05 0)
(0.0997383674 5.99997389e-05 0)
(0.0997315694 5.83133195e-05 0)
(0.0997263744 5.6907767e-05 0)
(0.0997168744 5.40288345e-05 0)
(0.100000432 -1.3168671e-05 0)
(0.100006006 -4.9857507e-05 0)
(0.1000203 -9.88213711e-05 0)
(0.100046401 -0.000157523314 0)
(0.100085765 -0.000219100609 0)
(0.100138054 -0.000273044546 0)
(0.100200925 -0.000307749921 0)
(0.100269989 -0.000314505678 0)
(0.10033942 -0.000290223504 0)
(0.100403068 -0.000237620296 0)
(0.100455574 -0.000163717558 0)
(0.100493033 -7.79213068e-05 0)
(0.100514115 9.44718355e-06 0)
(0.100520324 8.95671088e-05 0)
(0.100513453 0.000156158048 0)
(0.100495446 0.000204866574 0)
(0.100469541 0.000233756367 0)
(0.100439246 0.00024308212 0)
(0.100407827 0.000234641457 0)
(0.100378205 0.000211268648 0)
(0.100352839 0.000176718029 0)
(0.100333562 0.000135964488 0)
(0.100321329 9.55663618e-05 0)
(0.100315881 6.34034162e-05 0)
(0.100315432 4.77452809e-05 0)
(0.100316516 5.56301432e-05 0)
(0.10031429 9.10539458e-05 0)
(0.100303395 0.000153710998 0)
(0.100278937 0.000238899809 0)
(0.100237217 0.000338572675 0)
(0.100176183 0.000443055664 0)
(0.100095575 0.000542863378 0)
(0.0999967877 0.000630129619 0)
(0.0998824786 0.000699409952 0)
(0.0997560943 0.0007478689 0)
(0.099621405 0.000775039419 0)
(0.0994821297 0.000782407071 0)
(0.0993416595 0.000773035728 0)
(0.099202843 0.000751339845 0)
(0.0990677829 0.000722962288 0)
(0.0989376071 0.000694595236 0)
(0.0988122378 0.000673541884 0)
(0.0986902417 0.000666888114 0)
(0.0985688744 0.000680323243 0)
(0.0984444034 0.000716857222 0)
(0.0983127023 0.000775833744 0)
(0.0981700145 0.000852648801 0)
(0.0980137047 0.000939419323 0)
(0.0978428071 0.00102654681 0)
(0.0976582156 0.00110479209 0)
(0.0974624598 0.00116725674 0)
(0.0972591246 0.00121066286 0)
(0.0970520845 0.00123555741 0)
(0.0968447776 0.00124545311 0)
(0.0966397203 0.00124529212 0)
(0.0964383632 0.00123982124 0)
(0.0962412617 0.00123241963 0)
(0.0960484326 0.00122466444 0)
(0.0958597339 0.00121659152 0)
(0.0956751363 0.00120736157 0)
(0.095494833 0.00119596832 0)
(0.0953192105 0.00118171847 0)
(0.0951487453 0.00116439118 0)
(0.0949838964 0.00114414402 0)
(0.0948250375 0.00112130939 0)
(0.094672438 0.00109621151 0)
(0.0945262788 0.00106906967 0)
(0.0943866805 0.00103998674 0)
(0.0942537286 0.00100898488 0)
(0.0941274891 0.000976047832 0)
(0.0940080156 0.00094114688 0)
(0.0938953537 0.000904247458 0)
(0.0937895457 0.0008653044 0)
(0.0936906374 0.000824255293 0)
(0.0935986858 0.000781016952 0)
(0.0935137681 0.000735485185 0)
(0.0934359875 0.000687535259 0)
(0.0933654765 0.000637021057 0)
(0.0933023931 0.000583772176 0)
(0.093246906 0.000527604192 0)
(0.0931991888 0.000468352241 0)
(0.0931594473 0.000405922149 0)
(0.0931279884 0.000340283437 0)
(0.0931052152 0.000271486215 0)
(0.0930915046 0.000199670873 0)
(0.0930871336 0.000124927001 0)
(0.0930918153 4.73146507e-05 0)
(0.0931050358 -3.29560792e-05 0)
(0.0931283082 -0.000116560036 0)
(0.0931636666 -0.000202604812 0)
(0.0932116476 -0.000290670277 0)
(0.0932725336 -0.000380760995 0)
(0.0933466972 -0.000472652072 0)
(0.0934345562 -0.00056592739 0)
(0.0935364553 -0.000660079798 0)
(0.0936526016 -0.000754478319 0)
(0.0937830771 -0.000848362317 0)
(0.0939278357 -0.000940868184 0)
(0.0940866702 -0.00103104751 0)
(0.0942591884 -0.00111788359 0)
(0.0944448012 -0.00120031624 0)
(0.0946427134 -0.00127727239 0)
(0.0948519205 -0.00134770068 0)
(0.0950712136 -0.00141060888 0)
(0.095299194 -0.00146510206 0)
(0.0955342957 -0.00151041841 0)
(0.0957748168 -0.00154596014 0)
(0.0960189574 -0.00157131737 0)
(0.0962648634 -0.00158628339 0)
(0.0965106728 -0.00159086068 0)
(0.0967545617 -0.00158525746 0)
(0.096994789 -0.00156987555 0)
(0.0972297352 -0.00154529062 0)
(0.0974579357 -0.00151222637 0)
(0.0976781053 -0.00147152456 0)
(0.0978891552 -0.0014241128 0)
(0.0980902013 -0.00137097189 0)
(0.0982805644 -0.00131310465 0)
(0.0984597648 -0.00125150736 0)
(0.0986275101 -0.00118714499 0)
(0.0987836797 -0.0011209307 0)
(0.0989283058 -0.00105371 0)
(0.0990615533 -0.000986249346 0)
(0.0991836993 -0.000919229001 0)
(0.099295112 -0.000853239635 0)
(0.0993962319 -0.000788782191 0)
(0.0994875535 -0.000726270325 0)
(0.0995696091 -0.000666034979 0)
(0.0996429549 -0.000608330446 0)
(0.0997081585 -0.000553341364 0)
(0.0997657891 -0.000501190285 0)
(0.0998164101 -0.000451945489 0)
(0.0998605722 -0.00040562881 0)
(0.0998988081 -0.000362223345 0)
(0.0999316284 -0.000321680581 0)
(0.0999595201 -0.000283926902 0)
(0.0999829452 -0.000248869461 0)
(0.100002339 -0.000216401041 0)
(0.100018107 -0.000186404055 0)
(0.100030631 -0.000158753632 0)
(0.100040267 -0.000133319509 0)
(0.100047353 -0.000109969218 0)
(0.100052207 -8.85747019e-05 0)
(0.100055124 -6.90183677e-05 0)
(0.100056356 -5.11933192e-05 0)
(0.1000561 -3.49999028e-05 0)
(0.100054504 -2.03425476e-05 0)
(0.100051671 -7.12947167e-06 0)
(0.100047727 4.72316738e-06 0)
(0.100042855 1.53015228e-05 0)
(0.1000372 2.47782841e-05 0)
(0.100030859 3.32279123e-05 0)
(0.100023914 4.07196224e-05 0)
(0.100016443 4.73302842e-05 0)
(0.100008526 5.31321298e-05 0)
(0.100000231 5.81953288e-05 0)
(0.0999916212 6.2587202e-05 0)
(0.0999827557 6.63702857e-05 0)
(0.0999736885 6.96022879e-05 0)
(0.0999644679 7.23359397e-05 0)
(0.0999551371 7.46188758e-05 0)
(0.0999457344 7.64940195e-05 0)
(0.0999362931 7.80001135e-05 0)
(0.0999268423 7.91722372e-05 0)
(0.0999174068 8.00422839e-05 0)
(0.099908008 8.063937e-05 0)
(0.0998986644 8.09901585e-05 0)
(0.0998893917 8.11191021e-05 0)
(0.0998802036 8.10486221e-05 0)
(0.0998711117 8.07992411e-05 0)
(0.0998621263 8.03896873e-05 0)
(0.0998532561 7.9836982e-05 0)
(0.0998445087 7.915652e-05 0)
(0.0998358907 7.83621481e-05 0)
(0.0998274076 7.7466249e-05 0)
(0.0998190641 7.64798352e-05 0)
(0.0998108639 7.54126518e-05 0)
(0.0998028101 7.42732894e-05 0)
(0.0997949051 7.30692951e-05 0)
(0.0997871507 7.18072567e-05 0)
(0.0997795483 7.04928261e-05 0)
(0.0997720986 6.91306894e-05 0)
(0.0997648034 6.7724678e-05 0)
(0.0997576595 6.62772408e-05 0)
(0.0997506795 6.47914576e-05 0)
(0.0997438211 6.32618563e-05 0)
(0.0997372341 6.17118207e-05 0)
(0.0997304213 6.00374862e-05 0)
(0.0997252004 5.8650752e-05 0)
(0.0997159025 5.5833692e-05 0)
(0.10000029 -1.65052809e-05 0)
(0.100005107 -6.33051568e-05 0)
(0.100018555 -0.000126476352 0)
(0.100044314 -0.000202643809 0)
(0.100084371 -0.000282915154 0)
(0.100138715 -0.000353749701 0)
(0.100205054 -0.000400114136 0)
(0.100278734 -0.000410590593 0)
(0.100353393 -0.000380979231 0)
(0.10042222 -0.00031462501 0)
(0.100479276 -0.000220513963 0)
(0.100520507 -0.000110687145 0)
(0.100544085 2.37204477e-06 0)
(0.100550283 0.000107211626 0)
(0.100541212 0.000194096094 0)
(0.100520118 0.000257446131 0)
(0.100490731 0.000295119829 0)
(0.100456934 0.000307556555 0)
(0.100422448 0.000297070236 0)
(0.100390633 0.000267233023 0)
(0.100364324 0.000222749019 0)
(0.100345623 0.000169884167 0)
(0.100335552 0.000116975466 0)
(0.100333661 7.42980169e-05 0)
(0.100337821 5.27503599e-05 0)
(0.100344324 6.15111872e-05 0)
(0.100348131 0.000105638701 0)
(0.100343422 0.000184651365 0)
(0.100324571 0.000292499153 0)
(0.100287175 0.000418882686 0)
(0.100228728 0.00055145568 0)
(0.100148836 0.000678161323 0)
(0.100049029 0.00078906247 0)
(0.0999322984 0.000877344651 0)
(0.099802542 0.000939508346 0)
(0.0996640279 0.000975007723 0)
(0.0995209686 0.000985681575 0)
(0.0993772017 0.000975267947 0)
(0.0992359344 0.000949140548 0)
(0.0990995002 0.000914208925 0)
(0.0989691071 0.000878756357 0)
(0.0988446081 0.00085192953 0)
(0.0987243692 0.000842694226 0)
(0.0986053291 0.000858310915 0)
(0.0984833343 0.000902667375 0)
(0.0983537621 0.000975001248 0)
(0.0982123487 0.00106954456 0)
(0.0980560401 0.00117639063 0)
(0.0978836351 0.00128348888 0)
(0.0976960275 0.00137926275 0)
(0.0974959634 0.00145508788 0)
(0.0972873899 0.00150688044 0)
(0.0970745937 0.00153534336 0)
(0.0968613893 0.00154489219 0)
(0.0966505754 0.00154173993 0)
(0.0964437695 0.00153186882 0)
(0.0962415888 0.00151956076 0)
(0.0960440384 0.00150684459 0)
(0.0958509274 0.00149381207 0)
(0.0956621715 0.00147944587 0)
(0.0954779216 0.00146250696 0)
(0.0952985376 0.00144214152 0)
(0.0951244811 0.00141808799 0)
(0.094956199 0.00139056442 0)
(0.0947940497 0.00136001458 0)
(0.0946382803 0.00132687646 0)
(0.0944890423 0.00129145715 0)
(0.094346422 0.0012539148 0)
(0.0942104682 0.00121430091 0)
(0.0940812091 0.0011726124 0)
(0.0939586617 0.00112882414 0)
(0.0938428369 0.00108289762 0)
(0.0937337449 0.00103477538 0)
(0.0936314024 0.000984373163 0)
(0.0935358411 0.00093157626 0)
(0.0934471155 0.000876240764 0)
(0.0933653099 0.000818197504 0)
(0.0932905411 0.000757256631 0)
(0.0932229591 0.000693212257 0)
(0.093162743 0.000625850685 0)
(0.0931101001 0.000554967326 0)
(0.0930652716 0.000480380588 0)
(0.0930285364 0.000401928868 0)
(0.0930001937 0.000319430257 0)
(0.0929805014 0.000232689439 0)
(0.0929696997 0.000141560176 0)
(0.092968636 4.60806626e-05 0)
(0.0929784433 -5.32178987e-05 0)
(0.0929994411 -0.00015543695 0)
(0.093032002 -0.000260669856 0)
(0.0930770379 -0.000368957983 0)
(0.0931353359 -0.000480062487 0)
(0.093207518 -0.000593556977 0)
(0.0932941372 -0.000708890769 0)
(0.0933956712 -0.000825397564 0)
(0.0935124845 -0.000942268186 0)
(0.0936448067 -0.00105854344 0)
(0.0937927125 -0.00117313115 0)
(0.0939560905 -0.00128482617 0)
(0.0941346145 -0.00139233424 0)
(0.0943277219 -0.00149430511 0)
(0.0945345988 -0.00158937276 0)
(0.094754174 -0.00167620003 0)
(0.0949851224 -0.00175352611 0)
(0.0952258817 -0.00182021477 0)
(0.0954746792 -0.00187530023 0)
(0.0957295709 -0.00191802763 0)
(0.095988489 -0.00194788503 0)
(0.0962492969 -0.00196462454 0)
(0.0965098477 -0.00196827103 0)
(0.096768043 -0.0019591178 0)
(0.0970218885 -0.00193770986 0)
(0.0972695428 -0.00190481655 0)
(0.0975093572 -0.00186139582 0)
(0.0977399056 -0.00180855296 0)
(0.0979600026 -0.00174749691 0)
(0.0981687108 -0.00167949656 0)
(0.0983653391 -0.00160583971 0)
(0.0985494318 -0.00152779616 0)
(0.0987207513 -0.00144658638 0)
(0.0988792568 -0.00136335623 0)
(0.0990250788 -0.00127915801 0)
(0.0991584939 -0.00119493754 0)
(0.0992798978 -0.00111152672 0)
(0.0993897807 -0.00102964089 0)
(0.0994887037 -0.00094988026 0)
(0.0995772778 -0.000872734376 0)
(0.0996561452 -0.000798588969 0)
(0.0997259643 -0.000727734407 0)
(0.0997873961 -0.000660375035 0)
(0.0998410937 -0.000596639118 0)
(0.0998876934 -0.000536589039 0)
(0.0999278087 -0.000480231208 0)
(0.0999620258 -0.000427525317 0)
(0.0999909007 -0.000378392824 0)
(0.100014957 -0.000332724991 0)
(0.100034685 -0.000290390589 0)
(0.100050542 -0.000251242798 0)
(0.100062954 -0.000215125251 0)
(0.100072316 -0.000181878496 0)
(0.100078988 -0.000151346739 0)
(0.100083286 -0.000123381903 0)
(0.100085477 -9.78429504e-05 0)
(0.100085789 -7.45934688e-05 0)
(0.100084427 -5.34999358e-05 0)
(0.100081593 -3.44296227e-05 0)
(0.100077475 -1.72433773e-05 0)
(0.100072269 -1.77625596e-06 0)
(0.100066187 1.21220474e-05 0)
(0.100059378 2.45600219e-05 0)
(0.100051924 3.56387916e-05 0)
(0.10004392 4.54608492e-05 0)
(0.100035459 5.41270674e-05 0)
(0.100026616 6.17372201e-05 0)
(0.100017456 6.83845161e-05 0)
(0.100008038 7.41563385e-05 0)
(0.0999984142 7.91345255e-05 0)
(0.0999886328 8.33944388e-05 0)
(0.0999787365 8.70050552e-05 0)
(0.0999687638 9.0029341e-05 0)
(0.0999587494 9.25245146e-05 0)
(0.0999487241 9.45424173e-05 0)
(0.0999387152 9.61299677e-05 0)
(0.0999287467 9.73296209e-05 0)
(0.0999188396 9.81798148e-05 0)
(0.0999090119 9.87153877e-05 0)
(0.0998992791 9.89679566e-05 0)
(0.0998896543 9.89662461e-05 0)
(0.0998801485 9.87363736e-05 0)
(0.0998707711 9.83020897e-05 0)
(0.0998615294 9.7684983e-05 0)
(0.0998524298 9.69046531e-05 0)
(0.0998434771 9.59788588e-05 0)
(0.0998346754 9.49236479e-05 0)
(0.0998260278 9.3753474e-05 0)
(0.0998175365 9.2481305e-05 0)
(0.0998092034 9.11187239e-05 0)
(0.0998010295 8.96760227e-05 0)
(0.0997930156 8.8162285e-05 0)
(0.0997851621 8.65854451e-05 0)
(0.0997774691 8.49523247e-05 0)
(0.0997699362 8.32686058e-05 0)
(0.0997625638 8.15389668e-05 0)
(0.0997553477 7.97664645e-05 0)
(0.0997482994 7.79550943e-05 0)
(0.0997413729 7.60987453e-05 0)
(0.099734721 7.42266876e-05 0)
(0.0997278128 7.22152109e-05 0)
(0.0997225261 7.05592979e-05 0)
(0.099712828 6.72099488e-05 0)
(0.100000331 -1.90818368e-05 0)
(0.100005454 -7.4089425e-05 0)
(0.100019475 -0.000148575193 0)
(0.100046041 -0.000238589225 0)
(0.100087026 -0.000333993932 0)
(0.100142299 -0.000419189361 0)
(0.100209515 -0.000476639712 0)
(0.100284081 -0.000492773462 0)
(0.100359792 -0.000462233366 0)
(0.100429995 -0.000388432398 0)
(0.100488833 -0.0002815522 0)
(0.100532213 -0.000155682725 0)
(0.10055834 -2.59840813e-05 0)
(0.100567034 9.37514948e-05 0)
(0.100559973 0.000193522745 0)
(0.100540596 0.000266961618 0)
(0.10051269 0.000311314134 0)
(0.100480123 0.000326915924 0)
(0.100446657 0.000316256709 0)
(0.100415705 0.000283263035 0)
(0.100390176 0.000233188365 0)
(0.100372273 0.000173122707 0)
(0.100363221 0.000112574774 0)
(0.100362862 6.32524734e-05 0)
(0.100369162 3.7642479e-05 0)
(0.100378062 4.65169632e-05 0)
(0.100384067 9.61303865e-05 0)
(0.100381264 0.000186413931 0)
(0.100364222 0.000310737033 0)
(0.100328713 0.000457362254 0)
(0.100272246 0.000611997879 0)
(0.100194304 0.00076054117 0)
(0.100096234 0.000891252484 0)
(0.0999808536 0.000995979678 0)
(0.0998519353 0.00107043362 0)
(0.0997136835 0.00111379327 0)
(0.0995703007 0.00112804164 0)
(0.0994256549 0.00111738774 0)
(0.0992830198 0.00108795167 0)
(0.0991448317 0.00104765318 0)
(0.0990124267 0.00100604349 0)
(0.0988857791 0.000973745472 0)
(0.0987633348 0.000961273598 0)
(0.0986420591 0.000977275355 0)
(0.0985177831 0.001026566 0)
(0.0983858463 0.00110857001 0)
(0.0982419329 0.00121680572 0)
(0.0980829183 0.00133980262 0)
(0.0979075113 0.0014633868 0)
(0.0977165122 0.00157377151 0)
(0.0975126052 0.00166055235 0)
(0.0972997368 0.00171868841 0)
(0.0970822638 0.00174888735 0)
(0.0968641257 0.00175638148 0)
(0.09664827 0.00174864863 0)
(0.0964364547 0.00173295402 0)
(0.0962294076 0.00171454014 0)
(0.0960272076 0.00169592083 0)
(0.0958297053 0.00167724013 0)
(0.0956368362 0.00165727126 0)
(0.0954487589 0.00163450302 0)
(0.095265835 0.00160789177 0)
(0.0950885231 0.00157712437 0)
(0.0949172618 0.00154248533 0)
(0.0947523932 0.0015045452 0)
(0.0945941394 0.00146387301 0)
(0.0944426192 0.00142087842 0)
(0.0942978799 0.00137578651 0)
(0.094159927 0.00132868843 0)
(0.0940287441 0.00127960533 0)
(0.0939043034 0.00122852859 0)
(0.0937865721 0.00117543056 0)
(0.0936755195 0.00112025764 0)
(0.093571124 0.00106292048 0)
(0.0934733826 0.0010032896 0)
(0.0933823183 0.000941197696 0)
(0.093297987 0.000876446067 0)
(0.0932204817 0.000808812339 0)
(0.0931499345 0.000738058344 0)
(0.0930865173 0.000663939135 0)
(0.0930304434 0.000586214308 0)
(0.0929819714 0.000504659356 0)
(0.0929414116 0.000419073897 0)
(0.0929091325 0.000329293305 0)
(0.0928855577 0.00023521565 0)
(0.0928712405 0.000136865912 0)
(0.0928666699 3.44151078e-05 0)
(0.092872292 -7.2319068e-05 0)
(0.0928888604 -0.000183466628 0)
(0.0929172961 -0.00029872623 0)
(0.0929585084 -0.000417843225 0)
(0.0930133285 -0.000540549937 0)
(0.0930825116 -0.0006664422 0)
(0.0931667766 -0.000794948404 0)
(0.0932667844 -0.000925324504 0)
(0.093383088 -0.00105664636 0)
(0.0935160979 -0.00118780791 0)
(0.0936660519 -0.00131753176 0)
(0.0938329773 -0.00144438819 0)
(0.0940166526 -0.00156682231 0)
(0.0942165764 -0.00168319241 0)
(0.0944319426 -0.00179181924 0)
(0.0946616281 -0.00189104389 0)
(0.0949041925 -0.00197929139 0)
(0.0951578943 -0.00205513604 0)
(0.095420724 -0.00211736397 0)
(0.0956904512 -0.00216502795 0)
(0.0959646863 -0.00219749045 0)
(0.0962409517 -0.00221445144 0)
(0.0965167566 -0.00221595889 0)
(0.0967896741 -0.00220240164 0)
(0.0970574106 -0.00217448551 0)
(0.0973178676 -0.00213319529 0)
(0.0975691904 -0.00207974602 0)
(0.0978098021 -0.00201552754 0)
(0.0980384236 -0.0019420465 0)
(0.0982540783 -0.00186086947 0)
(0.0984560855 -0.00177357041 0)
(0.0986440429 -0.00168168459 0)
(0.0988178011 -0.00158667045 0)
(0.0989774344 -0.00148988011 0)
(0.0991232066 -0.00139253836 0)
(0.0992555383 -0.0012957295 0)
(0.0993749737 -0.00120039128 0)
(0.0994821501 -0.00110731474 0)
(0.09957777 -0.00101714873 0)
(0.0996625768 -0.00093040794 0)
(0.0997373345 -0.00084748358 0)
(0.0998028096 -0.000768655572 0)
(0.0998597582 -0.000694105609 0)
(0.0999089142 -0.000623930416 0)
(0.0999509824 -0.000558154611 0)
(0.0999866328 -0.000496742815 0)
(0.100016496 -0.000439611047 0)
(0.100041163 -0.00038663731 0)
(0.10006118 -0.000337670855 0)
(0.100077054 -0.000292539998 0)
(0.10008925 -0.000251058911 0)
(0.100098187 -0.000213033192 0)
(0.100104247 -0.000178264029 0)
(0.100107772 -0.000146551595 0)
(0.100109081 -0.000117697573 0)
(0.100108482 -9.15063246e-05 0)
(0.100106258 -6.77852506e-05 0)
(0.100102659 -4.63470194e-05 0)
(0.100097889 -2.70124424e-05 0)
(0.100092136 -9.61668733e-06 0)
(0.100085513 5.99470239e-06 0)
(0.100078079 1.99766594e-05 0)
(0.100069958 3.24423391e-05 0)
(0.10006129 4.35109721e-05 0)
(0.100052169 5.33014808e-05 0)
(0.100042675 6.19202029e-05 0)
(0.100032879 6.94670594e-05 0)
(0.100022843 7.60365243e-05 0)
(0.100012624 8.1716967e-05 0)
(0.100002272 8.65908002e-05 0)
(0.0999918305 9.07343211e-05 0)
(0.0999813392 9.4217729e-05 0)