/*--------------------------------*- C++ -*----------------------------------*\
| =========                 |                                                 |
| \\      /  F ield         | OpenFOAM: The Open Source CFD Toolbox           |
|  \\    /   O peration     | Version:  v2012                                 |
|   \\  /    A nd           | Website:  www.openfoam.com                      |
|    \\/     M anipulation  |                                                 |
\*---------------------------------------------------------------------------*/
FoamFile
{
    version     2.0;
    format      ascii;
    class       volScalarField;
    location    "2.94";
    object      p;
}
// * * * * * * * * * * * * * * * * * * * * * * * * * * * * * * * * * * * * * //

dimensions      [0 2 -2 0 0 0 0];


internalField   nonuniform List<scalar> 
28416
(
0.00598524919
0.00598495364
0.00598436393
0.00598357062
0.00598269626
0.00598181767
0.00598095565
0.00598011155
0.00597929334
0.00597851593
0.00597780377
0.00597714138
0.00597597845
0.00597503501
0.00597416777
0.0059734294
0.00597278492
0.00597220736
0.00597170758
0.00597130739
0.00597103661
0.00597093823
0.00597108829
0.00597150946
0.00597218088
0.0059730938
0.00597426335
0.00597571538
0.00597746353
0.00597950743
0.00598184351
0.00598446697
0.00598736936
0.00599053896
0.00599396252
0.00599762631
0.00600151663
0.00600562046
0.00600992589
0.00601442223
0.00601909953
0.00602394684
0.00602894887
0.00603408121
0.00603930612
0.00604457081
0.00604980899
0.00605494469
0.00605989685
0.0060645836
0.00606892545
0.00607284742
0.00607627972
0.00607915739
0.00608141911
0.00608300588
0.00608386006
0.00608392493
0.00608314506
0.00608146701
0.00607884028
0.00607521813
0.00607055819
0.00606482279
0.00605797919
0.00604999956
0.0060408611
0.00603054601
0.00601904146
0.00600633955
0.00599243712
0.00597733554
0.00596104036
0.00594356082
0.00592490909
0.00590509918
0.00588414465
0.00586205416
0.0058388206
0.00581445403
0.00578899523
0.00576246549
0.00573489219
0.00570632664
0.0056768313
0.00564647863
0.00561537983
0.00558368908
0.00555127451
0.00551818258
0.00548415766
0.00544933605
0.00541376764
0.00537740401
0.00534021891
0.00530220737
0.00526335536
0.00522364103
0.0051830425
0.00514153842
0.00509910737
0.00505572905
0.00501138583
0.00496606379
0.00491975377
0.00487245238
0.00482416287
0.00477489567
0.00472466876
0.00467350774
0.00462144557
0.00456852207
0.00451478323
0.00446028022
0.00440506837
0.00434920598
0.0042927532
0.00423577079
0.00417831917
0.00412045734
0.00406224208
0.00400372729
0.00394496341
0.00388599699
0.00382687051
0.00376762218
0.00370828596
0.0036488916
0.00358946485
0.00353002756
0.00347059794
0.0034111909
0.00335181838
0.0032924897
0.00323321191
0.00317399006
0.00311482749
0.00305572635
0.00299668784
0.00293771258
0.00287880067
0.00281995201
0.00276116644
0.00270244397
0.00264378503
0.00258519033
0.00252666018
0.00246819424
0.00240978812
0.00235139501
0.00229305514
0.00223475683
0.00217650428
0.00211828889
0.00206010318
0.00200194394
0.00194380838
0.00188569387
0.00182759817
0.00176951913
0.0017114547
0.00165340297
0.00159536224
0.00153733096
0.00147930773
0.00142129127
0.00136328046
0.00130527426
0.00124727171
0.00118927198
0.00113127432
0.00107327801
0.00101528248
0.000957287179
0.000899291637
0.000841295465
0.000783298325
0.00072529995
0.000667300165
0.000609298775
0.000551295488
0.000493289964
0.000435281894
0.000377270841
0.000319256599
0.000261237785
0.000203216322
0.00014518073
8.71584218e-05
2.90101123e-05
0.00598794759
0.00598789799
0.00598764947
0.00598714621
0.00598646888
0.0059857051
0.00598488124
0.00598399266
0.00598304425
0.00598205259
0.00598102297
0.0059799433
0.00597889827
0.00597764946
0.00597648325
0.00597536537
0.00597431737
0.00597336208
0.00597250831
0.00597177061
0.00597116981
0.00597072975
0.00597046907
0.0059703839
0.00597050276
0.00597086075
0.00597147972
0.0059723669
0.00597352891
0.00597497167
0.00597669673
0.00597870273
0.00598098662
0.00598354393
0.00598636934
0.00598945723
0.00599280188
0.00599639755
0.00600023805
0.0060043159
0.00600862082
0.00601313797
0.00601784605
0.00602271572
0.00602770836
0.00603277543
0.00603785868
0.00604289142
0.00604780081
0.00605251074
0.0060569447
0.00606102794
0.00606468866
0.00606785817
0.00607047035
0.0060724609
0.00607376673
0.00607432574
0.00607407713
0.00607296197
0.00607092404
0.00606791056
0.00606387292
0.0060587671
0.00605255409
0.00604520009
0.00603667671
0.00602696105
0.00601603581
0.00600388918
0.00599051477
0.00597591135
0.00596008247
0.00594303598
0.0059247833
0.00590533848
0.00588471703
0.00586293491
0.00584000908
0.00581596549
0.00579084305
0.00576469673
0.00573757581
0.00570953267
0.005680621
0.0056508752
0.00562030381
0.00558887956
0.00555664666
0.00552374289
0.00549011412
0.00545567995
0.00542047252
0.00538449552
0.00534772538
0.00531014271
0.00527172745
0.00523245323
0.00519229044
0.00515120851
0.00510917645
0.00506616414
0.00502214407
0.00497709294
0.00493099311
0.00488383405
0.00483561348
0.0047863383
0.00473602507
0.00468470016
0.00463239945
0.00457916766
0.00452505739
0.0044701278
0.00441444318
0.00435807139
0.00430108232
0.00424354631
0.00418553284
0.00412710929
0.00406833987
0.00400928489
0.00395000011
0.00389053636
0.00383093932
0.00377124946
0.00371150215
0.00365172778
0.00359195211
0.00353219652
0.00347247846
0.00341281184
0.00335320738
0.00329367305
0.0032342145
0.00317483542
0.0031155379
0.00305632275
0.00299718971
0.0029381378
0.00287916557
0.00282027122
0.00276145263
0.0027027072
0.00264403144
0.00258542092
0.00252687049
0.00246837427
0.0024099276
0.00235153163
0.00229318244
0.00223487357
0.00217660223
0.002118368
0.00206016697
0.00200199538
0.00194384994
0.0018857274
0.0018276249
0.00176954
0.00171147049
0.00165341435
0.00159536975
0.00153733502
0.00147930865
0.00142128931
0.00136327578
0.00130526695
0.00124726187
0.00118925966
0.00113125955
0.00107326084
0.00101526295
0.000957265336
0.000899267536
0.000841269162
0.000783269871
0.000725269376
0.000667267436
0.000609263814
0.000551258248
0.000493250458
0.000435240206
0.000377227139
0.000319211217
0.000261191289
0.00020317001
0.00014513662
8.71233041e-05
2.898914e-05
0.00598966511
0.00598950003
0.00598911475
0.00598850655
0.00598774963
0.00598691585
0.00598602607
0.00598507313
0.00598405651
0.0059829862
0.00598186816
0.00598068416
0.00597933484
0.0059783021
0.00597714043
0.0059759751
0.00597483842
0.00597373796
0.00597269686
0.00597174251
0.00597090285
0.00597020645
0.00596968241
0.00596936067
0.00596926888
0.00596941984
0.00596981975
0.0059704809
0.0059714147
0.00597262922
0.00597413066
0.005975923
0.00597800765
0.00598038399
0.00598305007
0.005986003
0.0059892389
0.00599275251
0.00599653663
0.00600058142
0.00600487372
0.00600939617
0.00601412579
0.00601903221
0.00602407623
0.00602920956
0.00603437554
0.00603951046
0.00604454517
0.00604940683
0.00605402075
0.00605831209
0.00606220717
0.00606563408
0.00606852278
0.00607080489
0.00607241343
0.00607328284
0.00607334923
0.00607255084
0.00607082873
0.00606812748
0.00606439581
0.0060595872
0.00605366021
0.00604657889
0.00603831289
0.00602883766
0.00601813453
0.00600619064
0.00599299895
0.00597855794
0.00596287136
0.00594594778
0.00592780006
0.00590844473
0.00588790144
0.00586619261
0.0058433438
0.00581938547
0.00579435458
0.00576829239
0.00574123647
0.00571321212
0.00568424759
0.00565438402
0.0056236993
0.00559225922
0.0055602878
0.00552751656
0.00549395965
0.00545964717
0.00542458266
0.00538875628
0.00535214957
0.00531474201
0.00527650957
0.00523742236
0.00519744643
0.00515654583
0.00511468375
0.00507182392
0.00502793261
0.00498298053
0.00493694467
0.00488980998
0.00484157089
0.00479223235
0.00474181054
0.00469033294
0.00463783806
0.00458437454
0.00453
0.00447477944
0.00441878346
0.00436208645
0.00430476471
0.00424689467
0.00418855137
0.00412980702
0.00407072997
0.00401138381
0.00395182679
0.00389211146
0.00383228452
0.00377238685
0.00371245366
0.00365251482
0.00359259521
0.00353271507
0.0034728905
0.0034131339
0.00335345445
0.00329385856
0.00323435033
0.00317493183
0.00311560356
0.00305636478
0.0029972138
0.00293814815
0.00287916484
0.00282026055
0.00276143177
0.00270267514
0.00264398784
0.00258536761
0.00252681237
0.00246831821
0.00240987814
0.00235150408
0.00229317059
0.00223487702
0.00217662068
0.00211839876
0.00206020768
0.00200204408
0.00194390503
0.00188578769
0.00182768944
0.00176960795
0.00171154109
0.00165348689
0.00159544363
0.00153740971
0.00147938369
0.0014213643
0.00136335037
0.00130534084
0.00124733476
0.0011893313
0.0011313297
0.00107332928
0.00101532947
0.000957329744
0.000899329661
0.000841328851
0.000783326986
0.000725323791
0.000667319035
0.00060931251
0.000551304009
0.000493293323
0.000435280286
0.000377264636
0.000319246433
0.000261224641
0.000203201855
0.000145166971
8.71493092e-05
2.90047384e-05
0.00599215199
0.00599207665
0.00599181339
0.00599131264
0.00599062469
0.00598981242
0.00598889526
0.00598786732
0.00598673076
0.00598550082
0.00598419384
0.00598282505
0.00598144272
0.00597984798
0.00597832597
0.00597683293
0.0059753745
0.00597396662
0.00597262771
0.00597137876
0.00597024308
0.00596924553
0.0059684111
0.00596776068
0.0059673075
0.00596706266
0.00596704376
0.00596727267
0.00596776988
0.00596854944
0.00596962031
0.00597098858
0.00597265832
0.00597463208
0.00597691137
0.00597949693
0.00598238872
0.00598558588
0.00598908626
0.00599288557
0.00599697579
0.00600134324
0.00600596691
0.00601081739
0.00601585635
0.00602103628
0.00602630068
0.00603158502
0.00603681836
0.00604192553
0.00604682941
0.00605145293
0.00605572027
0.00605955726
0.00606289121
0.00606565042
0.00606776384
0.0060691611
0.00606977289
0.00606953167
0.00606837257
0.00606623429
0.00606305984
0.00605879725
0.00605340006
0.00604682769
0.00603904577
0.00603002633
0.00601974797
0.00600819588
0.00599536179
0.00598124376
0.00596584595
0.00594917818
0.00593125551
0.00591209768
0.00589172866
0.00587017633
0.00584747242
0.00582365284
0.00579875786
0.00577283125
0.00574591827
0.00571806536
0.00568932541
0.00565976301
0.00562941183
0.00559829848
0.0055663834
0.00553376211
0.00550042758
0.00546637105
0.00543159036
0.00539607682
0.00535981205
0.0053227708
0.005284922
0.00524622841
0.00520664756
0.00516613354
0.00512463861
0.00508211522
0.00503851829
0.00499380762
0.00494795034
0.00490092312
0.00485271406
0.00480332421
0.0047527684
0.00470107546
0.00464828781
0.0045944603
0.0045396587
0.00448395761
0.00442743823
0.00437018597
0.00431228808
0.00425383156
0.00419490115
0.00413557777
0.00407593724
0.00401604935
0.00395597724
0.00389577712
0.0038354982
0.00377518283
0.00371486682
0.00365457987
0.00359434603
0.00353418431
0.00347410921
0.00341413132
0.00335425788
0.00329449325
0.00323483943
0.00317529652
0.00311586309
0.00305653654
0.00299731344
0.00293818982
0.00287916151
0.00282022436
0.00276137416
0.00270260634
0.00264391595
0.00258529739
0.00252674419
0.0024682476
0.00240980832
0.00235141971
0.00229307767
0.00223477943
0.00217652033
0.00211829669
0.00206010509
0.00200194208
0.00194380444
0.00188568919
0.00182759357
0.00176951511
0.00171145153
0.00165340077
0.00159536094
0.00153733037
0.00147930755
0.00142129112
0.0013632799
0.00130527281
0.00124726891
0.00118926738
0.00113126747
0.00107326855
0.00101527006
0.000957271513
0.000899272471
0.000841272586
0.000783271543
0.000725269072
0.000667264953
0.000609258992
0.000551251012
0.000493240847
0.000435228396
0.000377213471
0.000319196249
0.000261175824
0.00020315524
0.000145123839
8.71148635e-05
2.89843971e-05
0.00599476994
0.0059946696
0.00599436742
0.00599381366
0.00599306203
0.00599217883
0.00599118295
0.00599006516
0.00598882392
0.00598747272
0.00598602816
0.00598450344
0.00598291789
0.005981282
0.00597961266
0.00597792047
0.00597622156
0.00597454359
0.00597290918
0.00597134153
0.00596986541
0.00596850523
0.00596728416
0.00596622743
0.00596536737
0.00596473554
0.00596435079
0.00596422369
0.00596436113
0.00596477496
0.00596547894
0.00596648542
0.00596780463
0.00596944489
0.00597141326
0.00597371602
0.00597635846
0.00597934425
0.00598267441
0.0059863461
0.00599035167
0.00599467775
0.00599930418
0.00600420253
0.00600933494
0.00601465389
0.00602010291
0.0060256178
0.00603112822
0.0060365593
0.0060418333
0.00604687116
0.00605159377
0.00605592258
0.00605977972
0.00606308793
0.00606577043
0.0060677511
0.00606895489
0.00606930853
0.00606874139
0.00606718641
0.00606458101
0.00606086783
0.00605599541
0.00604991869
0.00604259936
0.0060340062
0.00602411523
0.00601290983
0.00600038075
0.00598652592
0.00597135025
0.00595486524
0.00593708856
0.00591804355
0.0058977587
0.00587626723
0.00585360672
0.00582981878
0.00580494868
0.00577904453
0.00575215586
0.00572433228
0.00569562245
0.00566607429
0.0056357295
0.00560462483
0.00557281193
0.00554030242
0.00550710167
0.00547321105
0.0054386297
0.00540334816
0.00536734648
0.00533059604
0.00529306041
0.00525469537
0.00521544972
0.00517526719
0.00513408841
0.00509185342
0.00504850446
0.0050039891
0.00495826326
0.00491129419
0.00486306299
0.0048135665
0.00476281848
0.00471084992
0.00465770838
0.00460345658
0.0045481703
0.00449193573
0.00443484648
0.00437700067
0.00431849789
0.00425943664
0.00419991198
0.00414001368
0.00407982481
0.00401942081
0.00395886891
0.00389822795
0.00383754846
0.00377687302
0.00371623672
0.00365566782
0.00359518841
0.00353481516
0.00347455998
0.00341443074
0.0033544319
0.00329456512
0.00323482985
0.00317522372
0.00311574303
0.00305638315
0.00299713878
0.00293800419
0.00287897319
0.00282003905
0.00276119482
0.00270243403
0.00264375088
0.00258514003
0.00252659701
0.0024681218
0.0024096994
0.00235133156
0.00229300999
0.00223473003
0.00217648798
0.00211827997
0.00206010236
0.00200195174
0.00194382502
0.00188571927
0.00182763187
0.00176956041
0.00171150275
0.00165345693
0.00159542119
0.00153739395
0.00147937378
0.00142135941
0.00136334969
0.0013053436
0.00124734022
0.00118933874
0.00113133846
0.00107333874
0.00101533906
0.00095733896
0.000899338038
0.000841335979
0.000783332507
0.000725327396
0.000667320471
0.000609311589
0.000551300632
0.000493287497
0.000435272154
0.00037725449
0.000319234756
0.000261212117
0.000203189512
0.000145155935
8.71418785e-05
2.90003387e-05
0.00599763543
0.00599753084
0.00599721828
0.00599664542
0.00599585937
0.00599491891
0.00599383758
0.0059926041
0.00599121749
0.00598969269
0.00598804866
0.005986303
0.00598446684
0.00598252265
0.00598053719
0.00597852608
0.00597651442
0.00597451298
0.00597254189
0.00597062669
0.00596879404
0.005967073
0.00596549494
0.00596408533
0.00596285889
0.00596183368
0.00596102915
0.00596046224
0.00596016093
0.0059601473
0.00596043607
0.00596104034
0.00596197345
0.00596324838
0.00596487743
0.00596687211
0.00596924277
0.00597199795
0.00597514353
0.00597868145
0.00598260775
0.00598691066
0.00599156922
0.00599655317
0.00600182344
0.00600733279
0.00601302601
0.00601884012
0.00602470492
0.00603054438
0.00603627834
0.0060418244
0.00604709925
0.00605201944
0.00605650159
0.00606046241
0.00606381872
0.00606648771
0.00606838747
0.00606943769
0.00606956071
0.00606868251
0.00606673378
0.00606365086
0.0060593765
0.00605386047
0.00604706011
0.00603894066
0.00602947555
0.00601864653
0.00600644372
0.00599286548
0.00597791816
0.00596161572
0.00594397923
0.00592503638
0.0059048208
0.00588337151
0.00586073232
0.00583695116
0.00581207936
0.00578617077
0.00575928052
0.00573146397
0.00570277583
0.00567326988
0.00564299701
0.0056119974
0.00558030025
0.00554793116
0.00551491207
0.00548125056
0.00544694462
0.00541198321
0.00537634452
0.00533999579
0.00530289367
0.00526498468
0.00522620624
0.00518648854
0.00514575692
0.00510393494
0.00506094792
0.00501672691
0.00497121269
0.00492435968
0.00487613928
0.00482654252
0.00477558154
0.00472329008
0.00466972251
0.00461495199
0.00455906762
0.00450217083
0.00444437164
0.00438578469
0.00432652557
0.00426670753
0.00420643873
0.00414582007
0.00408494367
0.00402389188
0.00396273687
0.00390154056
0.003840355
0.0037792229
0.0037181784
0.00365724794
0.00359645116
0.0035358018
0.00347530858
0.00341497605
0.00335480533
0.00329479481
0.00323494074
0.00317523772
0.00311567917
0.00305625766
0.00299696522
0.00293779368
0.00287873501
0.00281978172
0.00276092683
0.00270216363
0.0026434853
0.00258488475
0.00252635341
0.00246788371
0.00240947182
0.00235111295
0.00229280201
0.00223453384
0.0021763039
0.00211810799
0.00205994228
0.00200180328
0.00194368778
0.00188559283
0.00182751574
0.00176945405
0.00171140556
0.00165336825
0.00159534033
0.00153732018
0.00147930637
0.00142129766
0.00136329291
0.00130529116
0.00124729153
0.00118929329
0.00113129577
0.00107329841
0.00101530072
0.000957302295
0.000899302765
0.000841301847
0.000783299294
0.000725294903
0.000667288524
0.000609280042
0.000551269373
0.000493256456
0.000435241309
0.000377223874
0.000319204469
0.000261182314
0.00020316056
0.000145128404
8.71189252e-05
2.89860795e-05
0.00600076147
0.00600064857
0.00600031241
0.00599969626
0.0059988474
0.00599782569
0.00599664475
0.00599529261
0.00599376744
0.00599208351
0.00599025894
0.00598830653
0.00598623978
0.005984087
0.00598184863
0.00597955521
0.00597722143
0.0059748761
0.00597254591
0.00597025639
0.00596803459
0.00596590624
0.00596389346
0.00596202161
0.00596032432
0.00595884776
0.00595758741
0.00595658111
0.00595584208
0.005955387
0.00595523742
0.00595541538
0.00595594059
0.00595683135
0.00595810563
0.00595978083
0.00596187311
0.00596439638
0.00596736095
0.0059707721
0.00597462897
0.00597892356
0.0059836395
0.00598875065
0.00599422003
0.00599999954
0.00600603089
0.00601224726
0.00601857499
0.00602493509
0.00603124451
0.00603741729
0.00604336561
0.00604900051
0.00605423228
0.00605897065
0.00606312499
0.00606660465
0.0060693196
0.00607118131
0.00607210378
0.00607200482
0.00607080721
0.00606843986
0.00606483872
0.00605994758
0.00605371871
0.00604611326
0.0060371017
0.00602666395
0.00601478946
0.00600147713
0.00598673504
0.00597058002
0.00595303719
0.00593413924
0.00591392577
0.00589244248
0.00586974034
0.00584587468
0.00582090426
0.00579489016
0.00576789469
0.00573998018
0.0057112078
0.00568163551
0.00565131462
0.00562029305
0.00558862007
0.00555632461
0.00552342632
0.00548993837
0.00545586271
0.00542118908
0.00538589424
0.00534994131
0.00531327986
0.00527584626
0.00523756476
0.00519834946
0.00515810708
0.00511674079
0.00507415462
0.00503025859
0.00498497404
0.00493823881
0.0048900118
0.00484027656
0.00478904335
0.00473634968
0.00468225914
0.00462685868
0.00457025477
0.0045125686
0.00445393101
0.00439447741
0.00433434305
0.00427365893
0.00421254859
0.00415112558
0.00408949182
0.00402773681
0.00396593726
0.00390415747
0.0038424499
0.00378085616
0.00371940807
0.00365812884
0.00359703428
0.00353613393
0.00347543212
0.00341492904
0.00335462151
0.00329450383
0.0032345684
0.00317480635
0.00311520798
0.00305576319
0.00299646178
0.00293729354
0.00287824824
0.0028193156
0.00276048562
0.00270174895
0.00264309749
0.00258452511
0.00252602219
0.00246758236
0.00240920019
0.00235087068
0.0022925877
0.0022343459
0.00217614075
0.00211796805
0.00205982388
0.00200170471
0.00194360734
0.00188552886
0.00182746664
0.00176941831
0.00171138178
0.00165335512
0.00159533666
0.00153732487
0.0014793184
0.00142131608
0.00136331683
0.00130531973
0.00124732396
0.00118932883
0.00113133371
0.00107333809
0.00101534153
0.000957343657
0.000899344172
0.000841342845
0.000783339485
0.000725333952
0.000667326157
0.000609316049
0.000551303605
0.000493288825
0.000435271789
0.000377252495
0.000319231311
0.00026120751
0.000203184192
0.000145150396
8.71374649e-05
2.89971673e-05
0.0060041633
0.00600403845
0.00600367167
0.00600300298
0.00600208083
0.00600096485
0.0059996661
0.00599816999
0.00599647337
0.0059945904
0.00599253958
0.00599033694
0.00598799748
0.00598553794
0.00598298515
0.00598035239
0.00597766515
0.00597494574
0.00597221856
0.00596951078
0.00596685078
0.00596426935
0.00596180131
0.00595947956
0.00595732488
0.00595536976
0.00595364288
0.00595215126
0.00595092438
0.00594998989
0.00594937208
0.00594909484
0.00594918263
0.00594966065
0.00595055419
0.00595188782
0.00595368467
0.00595596552
0.00595874764
0.00596204312
0.00596585649
0.00597018249
0.00597500451
0.00598029441
0.00598601314
0.00599211186
0.00599853279
0.00600520972
0.00601206842
0.00601902762
0.00602600044
0.00603289594
0.00603962029
0.00604607763
0.00605217052
0.00605780029
0.00606286743
0.00606727207
0.0060709147
0.00607369715
0.00607552375
0.00607630279
0.00607594787
0.00607437928
0.00607152518
0.00606732251
0.00606171778
0.00605466767
0.00604613945
0.00603611122
0.00602457208
0.00601152195
0.00599697132
0.00598094076
0.0059634603
0.00594456866
0.00592431232
0.00590274465
0.00587992481
0.00585591666
0.0058307877
0.00580460776
0.00577744778
0.00574937846
0.00572046876
0.00569078487
0.00566039026
0.00562934184
0.00559768615
0.0055654597
0.00553269444
0.00549940851
0.00546560643
0.00543127919
0.00539640233
0.00536093475
0.00532481821
0.0052879774
0.0052503209
0.00521174319
0.00517212789
0.00513135227
0.005089293
0.0050458327
0.0050008671
0.00495431202
0.00490610973
0.00485623379
0.00480469203
0.00475152717
0.00469681518
0.00464066148
0.00458319554
0.00452456439
0.00446492576
0.00440444142
0.00434327116
0.00428156777
0.00421947311
0.0041571154
0.00409460756
0.00403204658
0.00396951355
0.00390707443
0.00384478115
0.00378267302
0.00372077825
0.00365911555
0.00359769563
0.00353652264
0.00347559547
0.00341490895
0.00335445477
0.00329422241
0.00323419984
0.00317437407
0.00311473154
0.00305525856
0.00299594153
0.00293676745
0.00287772418
0.00281880049
0.00275998594
0.00270127024
0.00264264242
0.00258409733
0.00252562356
0.00246721543
0.00240886351
0.0023505617
0.00229230556
0.00223408972
0.00217590924
0.00211775982
0.00205963749
0.0020015387
0.00194346021
0.00188539916
0.00182735292
0.00176931919
0.00171129589
0.00165328116
0.00159527336
0.00153727104
0.00147927292
0.00142127788
0.00136328495
0.00130529326
0.0012473021
0.00118931082
0.0011313189
0.00107332586
0.00101533135
0.000957335059
0.000899336721
0.000841336157
0.00078333322
0.000725327804
0.000667319857
0.000609309367
0.000551296346
0.000493280839
0.000435262966
0.000377242774
0.000319220677
0.000261195977
0.000203171882
0.0001451375
8.71256624e-05
2.89890038e-05
0.00600786323
0.00600772421
0.00600732144
0.00600659174
0.00600558569
0.00600436438
0.00600293786
0.00600129018
0.0059994176
0.00599733415
0.00599505829
0.00599260508
0.00598998839
0.00598722508
0.0059843344
0.00598134163
0.00597826841
0.00597513966
0.00597198343
0.00596882992
0.00596571154
0.00596266127
0.00595971057
0.00595689252
0.00595423866
0.0059517515
0.00594947621
0.0059474461
0.00594569318
0.00594423827
0.0059431083
0.00594233425
0.0059419477
0.00594198061
0.00594246543
0.00594343459
0.00594491925
0.00594694789
0.00594954438
0.00595272597
0.00595650156
0.00596087019
0.00596581964
0.0059713253
0.00597734977
0.00598384339
0.00599074535
0.00599798533
0.00600548507
0.00601315961
0.00602091812
0.00602866471
0.00603629921
0.00604371802
0.00605081476
0.00605748098
0.00606360674
0.0060690813
0.006073794
0.00607763531
0.00608049817
0.00608227962
0.00608288247
0.00608221687
0.00608020181
0.00607676622
0.00607184994
0.00606540442
0.0060573933
0.00604779269
0.00603659129
0.00602379035
0.00600940325
0.005993455
0.00597598149
0.00595702856
0.00593665093
0.00591491108
0.00589187792
0.00586762554
0.00584223181
0.00581577698
0.00578834236
0.00576000886
0.00573085573
0.00570095899
0.00567038916
0.00563921121
0.00560748472
0.00557525926
0.00554257056
0.00550944364
0.00547588955
0.0054419025
0.00540745825
0.00537251239
0.00533699896
0.00530082992
0.00526389579
0.00522606753
0.00518720021
0.00514713848
0.00510572373
0.0050628028
0.00501823749
0.00497191428
0.00492375303
0.00487371394
0.0048218016
0.00476806596
0.00471259981
0.00465553343
0.00459702692
0.00453726124
0.00447642894
0.00441472532
0.0043523407
0.00428945426
0.00422622945
0.00416281106
0.00409932372
0.00403587167
0.00397253943
0.00390939311
0.00384648226
0.00378384191
0.00372149463
0.00365945261
0.00359771962
0.00353629271
0.00347516383
0.00341432111
0.00335375001
0.00329343422
0.00323335648
0.00317349914
0.00311384473
0.00305437628
0.0029950775
0.00293593269
0.00287692685
0.0028180459
0.00275927711
0.00270060957
0.00264202734
0.00258352764
0.00252510026
0.00246673642
0.00240842937
0.00235017114
0.00229195577
0.00223377807
0.00217563321
0.00211751688
0.00205942518
0.00200135461
0.00194330207
0.00188526475
0.00182724013
0.00176922602
0.00171122043
0.00165322164
0.0015952281
0.00153723846
0.00147925156
0.00142126636
0.00136328199
0.00130529768
0.00124731278
0.00118932674
0.00113133911
0.0010733495
0.00101535762
0.000957363216
0.000899366118
0.00084136621
0.000783363414
0.000725357694
0.000667349069
0.000609337589
0.000551323333
0.000493306402
0.00043528697
0.000377265133
0.000319241344
0.000261214947
0.00020318913
0.000145152964
8.71382319e-05
2.89964096e-05
0.00601188774
0.00601173277
0.00601128962
0.0060104919
0.00600939295
0.00600805547
0.00600648808
0.00600467273
0.00600260456
0.00600029714
0.00599776859
0.00599503407
0.00599210827
0.00598900893
0.00598575818
0.00598237714
0.00597889007
0.0059753231
0.00597170507
0.00596806718
0.00596444207
0.00596086353
0.00595736704
0.0059539878
0.00595076177
0.00594771399
0.00594487806
0.00594228648
0.00593996329
0.00593793987
0.00593625053
0.00593493195
0.00593402273
0.00593356318
0.00593359483
0.00593415931
0.0059352969
0.0059370449
0.00593943587
0.00594249538
0.0059462395
0.00595067216
0.00595578339
0.0059615487
0.00596792971
0.00597487539
0.00598232364
0.00599020262
0.00599843171
0.00600692219
0.00601557805
0.00602429684
0.00603297056
0.00604148647
0.0060497279
0.00605757512
0.00606490617
0.00607159775
0.0060775262
0.00608256871
0.00608660486
0.00608951844
0.00609119952
0.00609154636
0.00609046714
0.00608788143
0.00608372129
0.00607793221
0.00607047371
0.00606131976
0.00605045895
0.00603789433
0.00602364305
0.00600773564
0.00599021512
0.00597113586
0.00595056234
0.00592856767
0.00590523215
0.00588064167
0.00585488619
0.00582805819
0.0058002511
0.00577155782
0.00574206924
0.00571187265
0.00568105051
0.00564967812
0.00561783826
0.00558557384
0.00555293644
0.00551996254
0.00548667059
0.00545305998
0.0054191087
0.00538477038
0.00534997184
0.00531461158
0.00527855962
0.00524165908
0.00520372998
0.00516457569
0.00512399206
0.00508177874
0.00503775224
0.00499175933
0.00494368949
0.00489348472
0.00484114549
0.00478673192
0.00473036009
0.00467219419
0.00461243558
0.0045513102
0.00448905585
0.00442591048
0.00436210232
0.00429784232
0.00423331899
0.0041686954
0.00410410816
0.0040396679
0.00397546083
0.00391155106
0.00384798326
0.00378478559
0.00372197248
0.00365954728
0.0035975047
0.00353583287
0.00347451518
0.0034135318
0.00335286088
0.00329247955
0.00323236469
0.00317249343
0.00311284355
0.00305339384
0.00299412436
0.00293501668
0.00287605387
0.00281722027
0.00275850171
0.00269989179
0.00264136587
0.00258291762
0.00252454149
0.002466226
0.00240796455
0.00234975033
0.00229157692
0.00223343883
0.00217533109
0.00211724931
0.00205918958
0.00200114844
0.00194312283
0.00188511002
0.00182710763
0.00176911356
0.00171112596
0.00165314324
0.00159516399
0.00153718698
0.00147921117
0.00142123566
0.00136325966
0.00130528254
0.00124730372
0.00118932278
0.00113133933
0.00107335307
0.00101536379
0.000957371333
0.000899375572
0.000841376461
0.000783373979
0.000725368145
0.000667359025
0.000609346718
0.000551331348
0.000493313063
0.000435292083
0.000377268547
0.000319242955
0.00026121468
0.000203186977
0.000145148971
8.71332829e-05
2.89921914e-05
0.00601626657
0.00601609411
0.00601560666
0.00601473448
0.00601353418
0.00601207054
0.00601035103
0.00600835579
0.00600607907
0.00600353408
0.0060007385
0.00599770693
0.00599445376
0.00599099717
0.00598735625
0.00598355626
0.00597962153
0.00597557923
0.00597145988
0.00596729663
0.00596312496
0.00595898209
0.00595490652
0.0059509368
0.00594710501
0.00594344252
0.00593998232
0.00593675769
0.00593380462
0.00593115735
0.00592885309
0.00592693499
0.00592545006
0.00592444778
0.00592397946
0.00592409719
0.00592485201
0.00592629182
0.00592845895
0.00593138741
0.0059351002
0.00593960678
0.00594490139
0.00595096211
0.00595775124
0.00596521663
0.00597329366
0.00598190702
0.00599097213
0.00600039591
0.00601007721
0.00601990701
0.00602976886
0.00603953964
0.00604909069
0.00605828898
0.00606699836
0.0060750807
0.00608239701
0.00608880883
0.00609417998
0.00609837868
0.00610127997
0.00610276805
0.00610273837
0.00610109943
0.00609777421
0.0060927012
0.00608583521
0.00607714786
0.00606662771
0.00605428015
0.00604012685
0.00602420499
0.00600656611
0.00598727477
0.00596640703
0.00594404867
0.00592029347
0.00589524127
0.00586899625
0.00584166504
0.00581335514
0.00578417331
0.00575422426
0.00572360928
0.00569242527
0.00566076497
0.00562869514
0.00559630461
0.00556365162
0.00553078267
0.00549772721
0.00546449386
0.00543106642
0.0053973996
0.00536341501
0.00532899803
0.00529399621
0.00525822006
0.00522144672
0.00518342744
0.0051438989
0.00510259824
0.00505928078
0.00501373905
0.00496582063
0.00491544243
0.00486259939
0.00480736603
0.00474989091
0.00469038494
0.00462910545
0.00456633841
0.0045023808
0.00443752505
0.00437204639
0.0043061938
0.00424018438
0.00417420073
0.00410839082
0.00404286967
0.00397772234
0.00391300748
0.00384876133
0.00378500165
0.0037217314
0.00365894209
0.00359661672
0.00353473224
0.0034732616
0.00341217544
0.00335144335
0.00329103485
0.00323092019
0.00317107089
0.00311146006
0.00305206264
0.00299285538
0.00293381682
0.00287492733
0.00281616852
0.0027575179
0.00269897745
0.00264053044
0.00258215615
0.00252384958
0.00246560115
0.00240740256
0.00234924699
0.00229112817
0.00223304064
0.0021749796
0.00211694079
0.00205892049
0.00200091539
0.00194292262
0.00188493965
0.00182696429
0.0017689946
0.00171102894
0.00165306584
0.00159510405
0.00153714252
0.00147918033
0.0014212167
0.00136325102
0.00130528273
0.00124731142
0.00118933674
0.00113135843
0.00107337628
0.00101539019
0.000957400065
0.000899405876
0.000841407655
0.000783405458
0.000725399378
0.000667389553
0.000609376148
0.000551359351
0.000493339368
0.000435316472
0.000377290846