/*--------------------------------*- C++ -*----------------------------------*\
| =========                 |                                                 |
| \\      /  F ield         | OpenFOAM: The Open Source CFD Toolbox           |
|  \\    /   O peration     | Version:  v2012                                 |
|   \\  /    A nd           | Website:  www.openfoam.com                      |
|    \\/     M anipulation  |                                                 |
\*---------------------------------------------------------------------------*/
FoamFile
{
    version     2.0;
    format      ascii;
    class       surfaceScalarField;
    location    "2.94";
    object      phi;
}
// * * * * * * * * * * * * * * * * * * * * * * * * * * * * * * * * * * * * * //

dimensions      [0 3 -1 0 0 0 0];
oriented        oriented;


internalField   nonuniform List<scalar> 
56481
(
6.66692077e-07
-5.83432966e-11
6.6677046e-07
-2.034484e-10
6.66914921e-07
-3.95494291e-10
6.67135272e-07
-6.24232587e-10
6.67432912e-07
-8.59905136e-10
6.67797318e-07
-1.05974405e-09
6.682052e-07
-1.17842983e-09
6.68623761e-07
-1.18315295e-09
6.6901677e-07
-1.06396786e-09
6.69350751e-07
-8.33853512e-10
6.6959928e-07
-5.21439423e-10
6.69741885e-07
-1.60465727e-10
6.69811646e-07
2.05266744e-10
6.69811459e-07
5.43593861e-10
6.69748315e-07
8.23949879e-10
6.6963462e-07
1.02653118e-09
6.69486367e-07
1.14267452e-09
6.69320387e-07
1.17315099e-09
6.69152341e-07
1.12638744e-09
6.68995706e-07
1.01568821e-09
6.68860562e-07
8.58410177e-10
6.68751219e-07
6.77266505e-10
6.68669131e-07
5.02596514e-10
6.68610889e-07
3.65839387e-10
6.68562539e-07
3.02101831e-10
6.68499987e-07
3.39477823e-10
6.68393515e-07
4.91725231e-10
6.68214294e-07
7.54901109e-10
6.67939479e-07
1.10797888e-09
6.67555279e-07
1.51711897e-09
6.67058023e-07
1.94265487e-09
6.66453397e-07
2.34630616e-09
6.65754366e-07
2.69661511e-09
6.64978477e-07
2.97188692e-09
6.64145284e-07
3.16085934e-09
6.63274344e-07
3.26187418e-09
6.62383854e-07
3.28146318e-09
6.61489665e-07
3.23304179e-09
6.60604313e-07
3.13598441e-09
6.59735813e-07
3.01487935e-09
6.58886265e-07
2.89839598e-09
6.58050711e-07
2.81709493e-09
6.57216911e-07
2.79979787e-09
6.5636665e-07
2.86877843e-09
6.55478729e-07
3.03480082e-09
6.54533096e-07
3.29357083e-09
6.53515044e-07
3.62512565e-09
6.52418296e-07
3.99696324e-09
6.51246134e-07
4.37050732e-09
6.5001037e-07
4.70927543e-09
6.4872855e-07
4.98639498e-09
6.47420294e-07
5.18922484e-09
6.46103786e-07
5.31982079e-09
6.44793311e-07
5.39144576e-09
6.43498293e-07
5.42267328e-09
6.42223782e-07
5.43130056e-09
6.40971889e-07
5.43003258e-09
6.39743482e-07
5.4249232e-09
6.38539537e-07
5.41635316e-09
6.3736183e-07
5.40145861e-09
6.36212968e-07
5.37668793e-09
6.35096021e-07
5.33952668e-09
6.34014048e-07
5.28907314e-09
6.32969742e-07
5.22571897e-09
6.31965276e-07
5.15044134e-09
6.31002323e-07
5.06417346e-09
6.30082167e-07
4.9674777e-09
6.29205818e-07
4.8605034e-09
6.28374095e-07
4.74312366e-09
6.27587678e-07
4.61508622e-09
6.26847137e-07
4.47610128e-09
6.26152965e-07
4.32587829e-09
6.25505615e-07
4.16411704e-09
6.24905555e-07
3.99048742e-09
6.24353338e-07
3.80463395e-09
6.23849699e-07
3.60618283e-09
6.2339576e-07
3.39472509e-09
6.22993581e-07
3.16975501e-09
6.2264508e-07
2.93029614e-09
6.22350443e-07
2.67479165e-09
6.22111565e-07
2.40168982e-09
6.21930033e-07
2.11117378e-09
6.2180633e-07
1.80335304e-09
6.21740712e-07
1.47712703e-09
6.21732337e-07
1.13233883e-09
6.21778694e-07
7.70462671e-10
6.21874822e-07
3.94904152e-10
6.22009165e-07
1.5092888e-11
6.22225596e-07
-3.89050627e-10
6.22527979e-07
-7.85450812e-10
6.22915805e-07
-1.18905823e-09
6.23389055e-07
-1.6009802e-09
6.23947732e-07
-2.01942431e-09
6.24591968e-07
-2.44312897e-09
6.25321602e-07
-2.87023884e-09
6.26135957e-07
-3.29789954e-09
6.2703377e-07
-3.7227028e-09
6.28013068e-07
-4.14089182e-09
6.29071033e-07
-4.54837272e-09
6.30203915e-07
-4.94079002e-09
6.31407007e-07
-5.31364365e-09
6.32674651e-07
-5.66240443e-09
6.34000283e-07
-5.98265878e-09
6.35376501e-07
-6.27025342e-09
6.36795162e-07
-6.52145273e-09
6.38247503e-07
-6.7330658e-09
6.39724286e-07
-6.90258068e-09
6.41215964e-07
-7.02823647e-09
6.42712863e-07
-7.10909222e-09
6.4420538e-07
-7.14504191e-09
6.45684177e-07
-7.13681004e-09
6.47140361e-07
-7.08589628e-09
6.48565649e-07
-6.99451614e-09
6.49952511e-07
-6.86550744e-09
6.51294268e-07
-6.70220936e-09
6.52585168e-07
-6.50835269e-09
6.53820426e-07
-6.28793473e-09
6.5499623e-07
-6.04508699e-09
6.56109725e-07
-5.78397073e-09
6.57158968e-07
-5.50867344e-09
6.58142873e-07
-5.22311193e-09
6.59061129e-07
-4.93097074e-09
6.59914123e-07
-4.63564145e-09
6.60702853e-07
-4.34018919e-09
6.61428833e-07
-4.04732118e-09
6.62094008e-07
-3.7593841e-09
6.62700675e-07
-3.4783647e-09
6.63251397e-07
-3.20589512e-09
6.63748936e-07
-2.94327706e-09
6.64196194e-07
-2.69150438e-09
6.64596155e-07
-2.45128613e-09
6.64951845e-07
-2.22308139e-09
6.6526629e-07
-2.00713006e-09
6.65542486e-07
-1.8034812e-09
6.65783371e-07
-1.61202743e-09
6.65991815e-07
-1.43253423e-09
6.66170607e-07
-1.26466735e-09
6.66322442e-07
-1.10802503e-09
6.66449909e-07
-9.62164867e-10
6.66555491e-07
-8.26627122e-10
6.66641549e-07
-7.00960934e-10
6.667103e-07
-5.84745076e-10
6.66763765e-07
-4.77600214e-10
6.66803689e-07
-3.79181304e-10
6.66831465e-07
-2.89156709e-10
6.66848123e-07
-2.07167078e-10
6.668544e-07
-1.32760241e-10
6.66850854e-07
-6.53599159e-11
6.6683753e-07
-3.7373328e-12
6.66819104e-07
5.06216017e-11
6.66795334e-07
1.00393419e-10
6.6676633e-07
1.44725082e-10
6.6673236e-07
1.84064606e-10
6.66693874e-07
2.18781854e-10
6.66651399e-07
2.49247808e-10
6.66605466e-07
2.75871787e-10
6.66556594e-07
2.9903643e-10
6.66505272e-07
3.19080952e-10
6.66451945e-07
3.36315621e-10
6.66397005e-07
3.51016817e-10
6.66340801e-07
3.6342565e-10
6.66283639e-07
3.73754992e-10
6.66225785e-07
3.82193888e-10
6.66167469e-07
3.88912796e-10
6.66108889e-07
3.94066182e-10
6.66050215e-07
3.97795979e-10
6.65991596e-07
4.00233057e-10
6.6593316e-07
4.01498819e-10
6.65875019e-07
4.01705241e-10
6.65817271e-07
4.00955978e-10
6.65760005e-07
3.99346704e-10
6.65703299e-07
3.96964731e-10
6.65647221e-07
3.93889825e-10
6.65591833e-07
3.90194359e-10
6.65537188e-07
3.85942914e-10
6.65483333e-07
3.81193221e-10
6.65430308e-07
3.75996633e-10
6.65378143e-07
3.70398274e-10
6.65326867e-07
3.6443871e-10
6.65276503e-07
3.58154626e-10
6.65227078e-07
3.51578055e-10
6.65178613e-07
3.44734945e-10
6.65131129e-07
3.3764668e-10
6.65084649e-07
3.3032812e-10
6.65039198e-07
3.22794963e-10
6.64994817e-07
3.15020842e-10
6.64951552e-07
3.07105872e-10
6.6490955e-07
2.98504749e-10
6.64868819e-07
2.91190089e-10
2.7606282e-10
6.6667826e-07
-7.00035619e-11
6.66739254e-07
-2.64441928e-10
6.66868018e-07
-5.24258667e-10
6.67079973e-07
-8.36187552e-10
6.67382534e-07
-1.16246631e-09
6.67768815e-07
-1.44602443e-09
6.68215128e-07
-1.62474361e-09
6.68684562e-07
-1.65258609e-09
6.69134535e-07
-1.51394122e-09
6.69525108e-07
-1.22442628e-09
6.69826241e-07
-8.2257304e-10
6.70024577e-07
-3.58801536e-10
6.7010919e-07
1.20654226e-10
6.70086585e-07
5.6619863e-10
6.6997884e-07
9.316948e-10
6.69809828e-07
1.19554289e-09
6.69603536e-07
1.34896728e-09
6.69382265e-07
1.39442129e-09
6.69166427e-07
1.34222551e-09
6.68973812e-07
1.20830324e-09
6.68818603e-07
1.01361961e-09
6.68710093e-07
7.8577573e-10
6.68651691e-07
5.60998905e-10
6.68634582e-07
3.82948503e-10
6.68639424e-07
2.97260043e-10
6.68638096e-07
3.4080583e-10
6.68596508e-07
5.33312891e-10
6.68479419e-07
8.71989953e-10
6.68256595e-07
1.33080342e-09
6.67907799e-07
1.86591493e-09
6.67425429e-07
2.4250242e-09
6.66814476e-07
2.95725939e-09
6.6609028e-07
3.42081131e-09
6.65275112e-07
3.78705483e-09
6.64394605e-07
4.04136633e-09
6.63474753e-07
4.18172622e-09
6.62539736e-07
4.2164805e-09
6.61610392e-07
4.1623857e-09
6.6070294e-07
4.04343576e-09
6.59827622e-07
3.89019778e-09
6.58987241e-07
3.73877685e-09
6.58175982e-07
3.62835407e-09
6.57379127e-07
3.59665277e-09
6.56574297e-07
3.67360883e-09
6.55734498e-07
3.87459915e-09
6.54832719e-07
4.19535019e-09
6.53847177e-07
4.61066778e-09
6.52765911e-07
5.07822867e-09
6.51589368e-07
5.54705027e-09
6.50330142e-07
5.96850164e-09
6.49009913e-07
6.30662386e-09
6.47654528e-07
6.54460979e-09
6.46288735e-07
6.68561392e-09
6.44932094e-07
6.74808688e-09
6.43597047e-07
6.75772029e-09
6.4228929e-07
6.73905732e-09
6.41009811e-07
6.70951246e-09
6.39757523e-07
6.67721114e-09
6.38531499e-07
6.64237695e-09
6.37332195e-07
6.60076261e-09
6.36161617e-07
6.54726607e-09
6.35022776e-07
6.4783678e-09
6.33918918e-07
6.39293067e-09
6.32852917e-07
6.29171993e-09
6.3182699e-07
6.17636808e-09
6.3084271e-07
6.04845418e-09
6.29901165e-07
5.90902271e-09
6.29003149e-07
5.75851926e-09
6.2814929e-07
5.59698247e-09
6.27340118e-07
5.42425821e-09
6.26576096e-07
5.24012345e-09
6.25857644e-07
5.0443302e-09
6.25185177e-07
4.83658399e-09
6.24559159e-07
4.61650575e-09
6.23980168e-07
4.38362461e-09
6.23448974e-07
4.13737679e-09
6.22966604e-07
3.87709541e-09
6.22534355e-07
3.60200343e-09
6.22153513e-07
3.31113857e-09
6.21824964e-07
3.00334045e-09
6.2154905e-07
2.67760421e-09
6.21326682e-07
2.33354098e-09
6.21158614e-07
1.97142164e-09
6.2104563e-07
1.59011083e-09
6.20989979e-07
1.18798982e-09
6.20995398e-07
7.65043563e-10
6.21069304e-07
3.20998293e-10
6.21222823e-07
-1.38426256e-10
6.21436504e-07
-6.02731461e-10
6.2172953e-07
-1.07847697e-09
6.22104941e-07
-1.56446922e-09
6.22565962e-07
-2.06200089e-09
6.23115505e-07
-2.56896791e-09
6.23755171e-07
-3.08279508e-09
6.24485777e-07
-3.60084406e-09
6.25307562e-07
-4.11968534e-09
6.26220006e-07
-4.63514604e-09
6.27221659e-07
-5.14254552e-09
6.28310055e-07
-5.636768e-09
6.29481617e-07
-6.11235209e-09
6.30731608e-07
-6.56363517e-09
6.32054113e-07
-6.98490955e-09
6.33442066e-07
-7.37061134e-09
6.34887317e-07
-7.7155045e-09
6.36380745e-07
-8.01488095e-09
6.37912405e-07
-8.2647258e-09
6.39471718e-07
-8.46189342e-09
6.41047689e-07
-8.60420777e-09
6.42629154e-07
-8.69055689e-09
6.44205029e-07
-8.72091673e-09
6.45764564e-07
-8.69634514e-09
6.47297575e-07
-8.61890705e-09
6.48794647e-07
-8.49158897e-09
6.50247308e-07
-8.31816818e-09
6.51648146e-07
-8.10304672e-09
6.52990892e-07
-7.85109948e-09
6.54270463e-07
-7.5675055e-09
6.5548295e-07
-7.25757374e-09
6.56625585e-07
-6.92660623e-09
6.57696678e-07
-6.57976594e-09
6.58695523e-07
-6.22195671e-09
6.596223e-07
-5.85774851e-09
6.60477966e-07
-5.49130691e-09
6.61264134e-07
-5.12635691e-09
6.61982964e-07
-4.76615141e-09
6.62637055e-07
-4.41347494e-09
6.63229342e-07
-4.07065185e-09
6.63763007e-07
-3.73956028e-09
6.64241397e-07
-3.42166765e-09
6.64667956e-07
-3.11806317e-09
6.6504616e-07
-2.82949026e-09
6.65379472e-07
-2.55639288e-09
6.65671299e-07
-2.29895708e-09
6.65924965e-07
-2.05714717e-09
6.66143683e-07
-1.83074573e-09
6.66330536e-07
-1.61938752e-09
6.66488463e-07
-1.42259341e-09
6.66620244e-07
-1.23980678e-09
6.66728498e-07
-1.07041876e-09
6.66815658e-07
-9.13787009e-10
6.66883954e-07
-7.69256462e-10
6.66935389e-07
-6.36180928e-10
6.6697175e-07
-5.13960798e-10
6.66994648e-07
-4.0207981e-10
6.67005571e-07
-3.00078986e-10
6.67005895e-07
-2.07491179e-10
6.6699694e-07
-1.23805503e-10
6.66980046e-07
-4.8465981e-11
6.66956519e-07
1.97897881e-11
6.66925989e-07
8.11520948e-11
6.66890292e-07
1.36089807e-10
6.66850037e-07
1.84980694e-10
6.66805851e-07
2.28250265e-10
6.66758234e-07
2.6639836e-10
6.66707626e-07
2.99856274e-10
6.66654449e-07
3.29048754e-10
6.66599105e-07
3.543801e-10
6.66541968e-07
3.7621825e-10
6.66483385e-07
3.94898162e-10
6.66423679e-07
4.10723458e-10
6.66363138e-07
4.23966563e-10
6.66302021e-07
4.34872241e-10
6.66240554e-07
4.43660237e-10
6.66178937e-07
4.50529683e-10
6.66117343e-07
4.55660946e-10
6.6605592e-07
4.59218965e-10
6.65994798e-07
4.6135473e-10
6.6593409e-07
4.62207196e-10
6.65873891e-07
4.61903537e-10
6.65814287e-07
4.6056064e-10
6.65755348e-07
4.58285694e-10
6.65697136e-07
4.55175953e-10
6.65639706e-07
4.51319867e-10
6.65583103e-07
4.46797475e-10
6.65527366e-07
4.41680128e-10
6.65472528e-07
4.36031689e-10
6.65418615e-07
4.29909083e-10
6.65365651e-07
4.23362279e-10
6.65313654e-07
4.16435715e-10
6.6526264e-07
4.09168419e-10
6.65212624e-07
4.01594423e-10
6.65163617e-07
3.93741519e-10
6.65115632e-07
3.85632416e-10
6.65068678e-07
3.77281849e-10
6.65022765e-07
3.68707511e-10
6.64977908e-07
3.5987795e-10
6.64934082e-07
3.50931715e-10
6.64891313e-07
3.4127374e-10
6.64849119e-07
3.33384534e-10
3.17289072e-10
6.66685739e-07
-8.90429046e-11
6.66754568e-07
-3.33270771e-10
6.66891156e-07
-6.6084695e-10
6.67109036e-07
-1.05406723e-09
6.67413491e-07
-1.46692074e-09
6.67797057e-07
-1.82959125e-09
6.682372e-07
-2.06488658e-09
6.68699174e-07
-2.11455967e-09
6.69142826e-07
-1.95759369e-09
6.69530003e-07
-1.61160334e-09
6.69830351e-07
-1.12292074e-09
6.70024896e-07
-5.53346225e-10
6.70115303e-07
3.02469925e-11
6.70114234e-07
5.67267365e-10
6.70031042e-07
1.01488724e-09
6.6988481e-07
1.34177517e-09
6.69697627e-07
1.53614979e-09
6.69491961e-07
1.60008721e-09
6.69288506e-07
1.54568048e-09
6.69105191e-07
1.39161841e-09
6.6895633e-07
1.16248048e-09
6.68851236e-07
8.90870126e-10
6.68792213e-07
6.20021417e-10
6.68772293e-07
4.02868355e-10
6.68774228e-07
2.95325067e-10
6.68770342e-07
3.44692676e-10
6.68726497e-07
5.77157695e-10
6.68608523e-07
9.89963556e-10
6.68387779e-07
1.55154732e-09
6.68045094e-07
2.20860012e-09
6.6757278e-07
2.89733846e-09
6.66974626e-07
3.55541296e-09
6.66264132e-07
4.13130534e-09
6.65461642e-07
4.58954455e-09
6.64591207e-07
4.91180227e-09
6.63677786e-07
5.09514627e-09
6.62745083e-07
5.14918355e-09
6.618139e-07
5.09356875e-09
6.60900744e-07
4.95659254e-09
6.60016377e-07
4.77456467e-09
6.59164293e-07
4.5908606e-09
6.58339455e-07
4.45319162e-09
6.57527953e-07
4.40815547e-09
6.56708216e-07
4.49334571e-09
6.55854065e-07
4.72874947e-09
6.54939236e-07
5.11017938e-09
6.5394243e-07
5.60747432e-09
6.52851648e-07
6.16901047e-09
6.51666654e-07
6.73204457e-09
6.50398857e-07
7.23629813e-09
6.49068634e-07
7.63684678e-09
6.47700842e-07
7.91240179e-09
6.46319852e-07
8.06660462e-09
6.4494551e-07
8.12242861e-09
6.43591043e-07
8.11218721e-09
6.42263141e-07
8.06695901e-09
6.40963716e-07
8.00893729e-09
6.39692354e-07
7.94857348e-09
6.38448483e-07
7.88624758e-09
6.3723265e-07
7.816596e-09
6.36046784e-07
7.73313199e-09
6.34893758e-07
7.63139367e-09
6.33776686e-07
7.5100024e-09
6.32698341e-07
7.37006579e-09
6.31660861e-07
7.21384817e-09
6.30665743e-07
7.04357195e-09
6.29713987e-07
6.86077853e-09
6.28806275e-07
6.66623073e-09
6.27943108e-07
6.46014993e-09
6.27124877e-07
6.24248904e-09
6.26351908e-07
6.01309231e-09
6.25624489e-07
5.77174961e-09
6.24942907e-07
5.51816616e-09
6.24307501e-07
5.25191181e-09
6.23718716e-07
4.97240979e-09
6.23177152e-07
4.67893986e-09
6.22683602e-07
4.37064587e-09
6.22239047e-07
4.04655856e-09
6.21844584e-07
3.70560169e-09
6.21501299e-07
3.34662477e-09
6.21210367e-07
2.96853674e-09
6.20973473e-07
2.57043505e-09
6.20793344e-07
2.15154998e-09
6.20672609e-07
1.71084634e-09
6.2061346e-07
1.24713843e-09
6.20615165e-07
7.63339259e-10
6.2067355e-07
2.62612555e-10
6.20794576e-07
-2.59451799e-10
6.20992179e-07
-8.00334916e-10
6.21270243e-07
-1.35654032e-09
6.21633375e-07
-1.92760118e-09
6.22083845e-07
-2.5124716e-09
6.22624311e-07
-3.10943319e-09
6.23257288e-07
-3.71577217e-09
6.23984536e-07
-4.32809191e-09
6.24807049e-07
-4.94219845e-09
6.25724986e-07
-5.55308332e-09
6.26737499e-07
-6.15505819e-09
6.27842585e-07
-6.74185433e-09
6.2903698e-07
-7.30674699e-09
6.30316072e-07
-7.84272704e-09
6.31673859e-07
-8.34269632e-09
6.33102957e-07
-8.79970994e-09
6.34594668e-07
-9.20721519e-09
6.36139098e-07
-9.55931159e-09
6.37725343e-07
-9.85097057e-09
6.39341717e-07
-1.00782669e-08
6.40976025e-07
-1.02385162e-08
6.42615867e-07
-1.0330399e-08
6.44248944e-07
-1.03539933e-08
6.45863361e-07
-1.03107625e-08
6.47447908e-07
-1.02034543e-08
6.48992299e-07
-1.00359793e-08
6.50487363e-07
-9.81323266e-09
6.51925188e-07
-9.54087098e-09
6.53299196e-07
-9.22510773e-09
6.54604181e-07
-8.87249069e-09
6.55836285e-07
-8.4896774e-09
6.56992938e-07
-8.08325967e-09
6.58072771e-07
-7.65959894e-09
6.59075495e-07
-7.22468088e-09
6.60001775e-07
-6.78402805e-09
6.60853089e-07
-6.34262093e-09
6.61631594e-07
-5.9048624e-09
6.62339992e-07
-5.47454937e-09
6.62981404e-07
-5.05488635e-09
6.63559256e-07
-4.64850418e-09
6.64077181e-07
-4.25748528e-09
6.64538927e-07
-3.88341395e-09
6.64948288e-07
-3.52742348e-09
6.65309039e-07
-3.19024207e-09
6.65624897e-07
-2.87225092e-09
6.65899474e-07
-2.57353367e-09
6.66136248e-07
-2.29392136e-09
6.66338546e-07
-2.03304382e-09
6.66509531e-07
-1.79037261e-09
6.66652193e-07
-1.56525478e-09
6.66769337e-07
-1.35695138e-09
6.6686359e-07
-1.1646713e-09
6.66937406e-07
-9.87603043e-10
6.66993098e-07
-8.24948747e-10
6.67032858e-07
-6.75940986e-10
6.67058731e-07
-5.39833473e-10
6.67072523e-07
-4.15872031e-10
6.67075722e-07
-3.03278155e-10
6.67069488e-07
-2.01256999e-10
6.67054682e-07
-1.08999158e-10
6.6703199e-07
-2.57747073e-11
6.67002619e-07
4.916082e-11
6.66967525e-07
1.16246884e-10
6.66927513e-07
1.76101091e-10
6.66883203e-07
2.29291058e-10
6.66835132e-07
2.76320858e-10
6.66783831e-07
3.17700196e-10
6.66729777e-07
3.53909841e-10
6.66673415e-07
3.85410924e-10
6.66615155e-07
4.12640412e-10
6.66555371e-07
4.36001739e-10
6.66494404e-07
4.55864736e-10
6.6643256e-07
4.72567523e-10
6.6637011e-07
4.86416677e-10
6.66307293e-07
4.97689856e-10
6.66244315e-07
5.06637597e-10
6.66181358e-07
5.13487251e-10
6.66118574e-07
5.18444246e-10
6.66056098e-07
5.21695396e-10
6.65994042e-07
5.23410429e-10
6.65932505e-07
5.2374426e-10
6.65871571e-07
5.22837516e-10
6.65811313e-07
5.20818541e-10
6.65751795e-07
5.17804381e-10
6.6569307e-07
5.139008e-10
6.65635186e-07
5.09203819e-10
6.65578183e-07
5.03800338e-10
6.65522095e-07
4.97767951e-10
6.65466951e-07
4.91176321e-10
6.65412772e-07
4.84087751e-10
6.65359577e-07
4.76556987e-10
6.6530738e-07
4.686326e-10
6.65256192e-07
4.60356876e-10
6.6520602e-07
4.51766479e-10
6.6515687e-07
4.4289143e-10
6.65108746e-07
4.33756467e-10
6.6506165e-07
4.24377773e-10
6.65015582e-07
4.14775179e-10
6.64970545e-07
4.04914689e-10
6.64926535e-07
3.94941941e-10
6.64883622e-07
3.84186911e-10
6.64841831e-07
3.75175529e-10
3.56916205e-10
6.66681178e-07
-1.03521071e-10
6.66744951e-07
-3.97043583e-10
6.66878028e-07
-7.93924223e-10
6.6709734e-07
-1.27337929e-09
6.67411077e-07
-1.78065781e-09
6.67813096e-07
-2.23160942e-09
6.68280193e-07
-2.53198415e-09
6.68774999e-07
-2.60936598e-09
6.69253351e-07
-2.43594515e-09
6.69672953e-07
-2.0312053e-09
6.70000582e-07
-1.45055022e-09
6.70216902e-07
-7.69665768e-10
6.70316335e-07
-6.91857767e-11
6.70306496e-07
5.77106404e-10
6.70206039e-07
1.11534333e-09
6.70037856e-07
1.50995864e-09
6.69827311e-07
1.74669494e-09
6.69599749e-07
1.82764875e-09
6.69378779e-07
1.76665081e-09
6.69185042e-07
1.58535573e-09
6.69034958e-07
1.31256387e-09
6.68938888e-07
9.86940175e-10
6.68898814e-07
6.60095633e-10
6.68906351e-07
3.95331001e-10
6.68942003e-07
2.59673687e-10
6.68976328e-07
3.10367375e-10
6.68973122e-07
5.80363268e-10
6.68894384e-07
1.06870202e-09
6.68706719e-07
1.73921222e-09
6.68387073e-07
2.52824585e-09
6.67925776e-07
3.35863624e-09
6.67326608e-07
4.15458043e-09
6.66604641e-07
4.85327251e-09
6.65782838e-07
5.41134783e-09
6.64888413e-07
5.80622742e-09
6.63949633e-07
6.03392602e-09
6.62993327e-07
6.10548918e-09
6.6204297e-07
6.04392551e-09
6.61117025e-07
5.88253749e-09
6.60227299e-07
5.66429072e-09
6.5937734e-07
5.44082006e-09
6.58561222e-07
5.26930986e-09
6.57763302e-07
5.20607464e-09
6.56959543e-07
5.29710546e-09
6.56120701e-07
5.56759138e-09
6.5521717e-07
6.01370985e-09
6.54224572e-07
6.60007224e-09
6.53128733e-07
7.26484983e-09
6.51928629e-07
7.93214818e-09
6.50636389e-07
8.52853885e-09
6.49274312e-07
8.99892306e-09
6.47869838e-07
9.31687599e-09
6.46449966e-07
9.48647686e-09
6.45036741e-07
9.53565405e-09
6.43644888e-07
9.50404014e-09
6.42281863e-07
9.42998394e-09
6.40949745e-07
9.34105458e-09
6.39647919e-07
9.25039956e-09
6.38375469e-07
9.15869822e-09
6.37132614e-07
9.05945057e-09
6.35921055e-07
8.94469093e-09
6.34743526e-07
8.80892274e-09
6.33603051e-07
8.65047728e-09
6.32502311e-07
8.47080623e-09
6.31443318e-07
8.27284099e-09
6.30427397e-07
8.05949335e-09
6.29455334e-07
7.83284128e-09
6.28527574e-07
7.59399044e-09
6.27644368e-07
7.34335597e-09
6.2680586e-07
7.08099689e-09
6.26012137e-07
6.80681531e-09
6.25263263e-07
6.52062349e-09
6.24559323e-07
6.22210684e-09
6.23900472e-07
5.91076243e-09
6.23286996e-07
5.5858859e-09
6.22719355e-07
5.24658103e-09
6.22198219e-07
4.89178178e-09
6.2172448e-07
4.52029739e-09
6.21299234e-07
4.13084802e-09
6.20923753e-07
3.72210533e-09
6.20599515e-07
3.29277496e-09
6.20328272e-07
2.84167769e-09
6.20112021e-07
2.3678015e-09
6.19952552e-07
1.87031478e-09
6.19850984e-07
1.34870627e-09
6.19811044e-07
8.03279266e-10
6.19841953e-07
2.31704493e-10
6.19944757e-07
-3.62256687e-10
6.2012316e-07
-9.7873755e-10
6.20382314e-07
-1.61569475e-09
6.2072718e-07
-2.27246695e-09
6.21162436e-07
-2.94772783e-09
6.21692104e-07
-3.63910036e-09
6.22319655e-07
-4.34332306e-09
6.23047875e-07
-5.05631265e-09
6.23878748e-07
-5.77307079e-09
6.24813306e-07
-6.48764203e-09
6.25851438e-07
-7.19318958e-09
6.26991686e-07
-7.88210251e-09
6.28231093e-07
-8.54615369e-09
6.29565073e-07
-9.17670739e-09
6.30987341e-07
-9.76496419e-09
6.32489903e-07
-1.03022719e-08
6.34063125e-07
-1.07804375e-08
6.35695879e-07
-1.11920657e-08
6.37375761e-07
-1.15308521e-08
6.3908938e-07
-1.17918864e-08
6.40822705e-07
-1.19718408e-08
6.42561439e-07
-1.20691329e-08
6.44291415e-07
-1.20839694e-08
6.45998978e-07
-1.20183256e-08
6.47671331e-07
-1.18758075e-08
6.49296834e-07
-1.16614819e-08
6.50865233e-07
-1.13816323e-08
6.52367824e-07
-1.10434614e-08
6.53797531e-07
-1.06548153e-08
6.55148933e-07
-1.02238925e-08
6.56418212e-07
-9.75895618e-09
6.57603064e-07
-9.26811183e-09
6.5870257e-07
-8.7591047e-09
6.59717036e-07
-8.23914739e-09
6.60647828e-07
-7.71482027e-09
6.61497194e-07
-7.19198686e-09
6.62268094e-07
-6.67576241e-09
6.62964039e-07
-6.17049347e-09
6.63588939e-07
-5.67978651e-09
6.64146978e-07
-5.20654308e-09
6.64642495e-07
-4.75300222e-09
6.6507989e-07
-4.32080954e-09
6.65463547e-07
-3.91108049e-09
6.65797766e-07
-3.5244605e-09
6.66086713e-07
-3.16119855e-09
6.6633439e-07
-2.82121066e-09
6.66544604e-07
-2.50413555e-09
6.66720955e-07
-2.20939423e-09
6.66866821e-07
-1.93623898e-09
6.66985364e-07
-1.68379727e-09
6.67079529e-07
-1.45111647e-09
6.67152051e-07
-1.23719318e-09
6.6720544e-07
-1.04099226e-09
6.67241946e-07
-8.61455091e-10
6.67263516e-07
-6.97511288e-10
6.67271804e-07
-5.48120837e-10
6.67268254e-07
-4.12322442e-10
6.6725422e-07
-2.89243832e-10
6.67231014e-07
-1.78051456e-10
6.67199914e-07
-7.7899196e-11
6.6716224e-07
1.18992262e-11
6.67119273e-07
9.21287424e-11
6.67071676e-07
1.63843646e-10
6.67020121e-07
2.27655888e-10
6.66965224e-07
2.84187996e-10
6.66907525e-07
3.34019487e-10
6.668475e-07
3.77725869e-10
6.6678556e-07
4.15849157e-10
6.66722077e-07
4.48894115e-10
6.66657385e-07
4.77332976e-10
6.66591784e-07
5.01602282e-10
6.66525547e-07
5.22101818e-10
6.66458917e-07
5.39197155e-10
6.66392113e-07
5.53220731e-10
6.66325329e-07
5.64474605e-10
6.66258734e-07
5.73232086e-10
6.66192479e-07
5.79741861e-10
6.66126695e-07
5.8422907e-10
6.66061491e-07
5.86898675e-10
6.65996965e-07
5.87936864e-10
6.65933196e-07
5.8751337e-10
6.65870251e-07
5.85781909e-10
6.65808188e-07
5.8288235e-10
6.6574705e-07
5.78941789e-10
6.65686876e-07
5.74074607e-10
6.65627696e-07
5.68384238e-10
6.65569532e-07
5.6196394e-10
6.65512404e-07
5.54896662e-10
6.65456323e-07
5.47256647e-10
6.65401301e-07
5.39110097e-10
6.65347343e-07
5.30514979e-10
6.65294453e-07
5.21522555e-10
6.65242633e-07
5.12177286e-10
6.65191881e-07
5.02517736e-10
6.65142197e-07
4.92575669e-10
6.65093576e-07
4.82377826e-10
6.65046011e-07
4.71942149e-10
6.64999493e-07
4.61293093e-10
6.64954012e-07
4.50395738e-10
6.6490952e-07
4.39434429e-10
6.64866013e-07
4.27693844e-10
6.64822998e-07
4.18190016e-10
3.99075923e-10
6.66682474e-07
-1.19395219e-10
6.6674913e-07
-4.63699114e-10
6.66886855e-07
-9.3164939e-10
6.67111924e-07
-1.49844829e-09
6.6743179e-07
-2.10052446e-09
6.67839802e-07
-2.63962063e-09
6.68312797e-07
-3.00497966e-09
6.68814091e-07
-3.1106597e-09
6.69300583e-07
-2.92243753e-09
6.69730764e-07
-2.46138575e-09
6.70071557e-07
-1.79134344e-09
6.70302748e-07
-1.0008571e-09
6.70419891e-07
-1.86328612e-10
6.70424753e-07
5.72244623e-10
6.70336945e-07
1.20315161e-09
6.70179425e-07
1.66747821e-09
6.69977888e-07
1.9482325e-09
6.69757825e-07
2.04771097e-09
6.69543103e-07
1.98137346e-09
6.69354803e-07
1.77365529e-09
6.69210023e-07
1.45734381e-09
6.6912024e-07
1.07672374e-09
6.69088926e-07
6.91408847e-10
6.69108579e-07
3.75677889e-10
6.69158954e-07
2.09299597e-10
6.69208396e-07
2.60924593e-10
6.69219047e-07
5.6971226e-10
6.69152861e-07
1.13488849e-09
6.68977561e-07
1.91451191e-09
6.68670811e-07
2.83499624e-09
6.68222613e-07
3.80683403e-09
6.67635733e-07
4.74146022e-09
6.66924052e-07
5.56495364e-09
6.66109534e-07
6.22586547e-09
6.65218761e-07
6.69700067e-09
6.6427975e-07
6.97293755e-09
6.63319398e-07
7.0658404e-09
6.62361515e-07
7.00180862e-09
6.61425137e-07
6.81891573e-09
6.60522838e-07
6.56659032e-09
6.59658982e-07
6.30467529e-09
6.58828311e-07
6.0999814e-09
6.58015543e-07
6.01884253e-09
6.57196687e-07
6.11596148e-09
6.56342328e-07
6.42195013e-09
6.55422556e-07
6.9334815e-09
6.54412577e-07
7.61005202e-09
6.53297673e-07
8.37975344e-09
6.52076212e-07
9.15360929e-09
6.50759808e-07
9.84494281e-09
6.49370558e-07
1.03881726e-08
6.47936135e-07
1.07512989e-08
6.46484191e-07
1.09384213e-08
6.45037683e-07
1.09821623e-08
6.436123e-07
1.09294228e-08
6.42216335e-07
1.08259491e-08
6.40852481e-07
1.07049083e-08
6.39520507e-07
1.05823738e-08
6.38219701e-07
1.04595039e-08
6.36950377e-07
1.0328775e-08
6.35714265e-07
1.01808028e-08
6.34514096e-07
1.00090915e-08
6.33352857e-07
9.81171682e-09
6.32233143e-07
9.59051949e-09
6.31156832e-07
9.34915223e-09
6.30125054e-07
9.09127155e-09
6.29138356e-07
8.81953967e-09
6.28196907e-07
8.53543906e-09
6.27300665e-07
8.23959779e-09
6.26449475e-07
7.932187e-09
6.25643128e-07
7.6131621e-09
6.24881406e-07
7.2823454e-09
6.24164128e-07
6.93938471e-09
6.23491207e-07
6.58368348e-09
6.22862705e-07
6.21438809e-09
6.22278882e-07
5.83040469e-09
6.2174023e-07
5.43043329e-09
6.21247499e-07
5.01302861e-09
6.20801698e-07
4.57664869e-09
6.20404105e-07
4.11969871e-09
6.20056282e-07
3.64059819e-09
6.19760118e-07
3.13784118e-09
6.19517878e-07
2.61004194e-09
6.19332212e-07
2.05598038e-09
6.19206278e-07
1.47464027e-09
6.19144127e-07
8.65429992e-10
6.19147547e-07
2.28284554e-10
6.19221914e-07
-4.36623569e-10
6.19372219e-07
-1.12904198e-09
6.19604754e-07
-1.84823037e-09
6.19925206e-07
-2.5929192e-09
6.20338829e-07
-3.36135036e-09
6.20850612e-07
-4.15088304e-09
6.2146518e-07
-4.95789126e-09
6.22186569e-07
-5.77770229e-09
6.23017998e-07
-6.60449896e-09
6.23961643e-07
-7.43128784e-09
6.25018403e-07
-8.2499492e-09
6.26187637e-07
-9.05133616e-09
6.27466941e-07
-9.82545766e-09
6.28851961e-07
-1.05617276e-08
6.30336266e-07
-1.12492689e-08
6.31911303e-07
-1.18773098e-08
6.33566458e-07
-1.24355918e-08
6.3528921e-07
-1.29148184e-08
6.37065408e-07
-1.33070498e-08
6.38879631e-07
-1.36061089e-08
6.4071563e-07
-1.38078405e-08
6.42556824e-07
-1.39103266e-08
6.44386799e-07
-1.39139446e-08
6.46189804e-07
-1.38213304e-08
6.47951186e-07
-1.36371893e-08
6.49657759e-07
-1.33680551e-08
6.51298082e-07
-1.30219554e-08
6.52862635e-07
-1.26080145e-08
6.54343903e-07
-1.21360833e-08
6.55736369e-07
-1.16163586e-08
6.57036431e-07
-1.10590182e-08
6.5824226e-07
-1.04739407e-08
6.59353616e-07
-9.87046041e-09
6.60371635e-07
-9.25716646e-09
6.61298609e-07
-8.64179427e-09
6.62137762e-07
-8.03114013e-09
6.62893041e-07
-7.4310411e-09
6.63568918e-07
-6.84637005e-09
6.64170218e-07
-6.28108692e-09
6.64701972e-07
-5.73829671e-09
6.65169284e-07
-5.22031448e-09
6.65577233e-07
-4.72875846e-09
6.65930787e-07
-4.26463515e-09
6.66234746e-07
-3.82841917e-09
6.66493692e-07
-3.42014443e-09
6.66711962e-07
-3.03948069e-09
6.66893626e-07
-2.68579989e-09
6.67042478e-07
-2.35824625e-09
6.67162031e-07
-2.05579196e-09
6.67255516e-07
-1.77728223e-09
6.67325881e-07
-1.52148098e-09
6.67375795e-07
-1.28710775e-09
6.67407676e-07
-1.07287269e-09
6.67423739e-07
-8.77518179e-10
6.67426067e-07
-6.99839028e-10
6.67416615e-07
-5.38669711e-10
6.67397167e-07
-3.92873696e-10
6.67369225e-07
-2.61302322e-10
6.67334065e-07
-1.42891208e-10
6.67292829e-07
-3.66633583e-11
6.67245901e-07
5.88276225e-11
6.67194025e-07
1.4400491e-10
6.67138059e-07
2.19809097e-10
6.67078737e-07
2.86977995e-10
6.67016666e-07
3.46259144e-10
6.66952347e-07
3.98338041e-10
6.66886227e-07
4.43846348e-10
6.66818701e-07
4.83375338e-10
6.6675012e-07
5.17474746e-10
6.66680798e-07
5.46654593e-10
6.66611015e-07
5.71385727e-10
6.66541017e-07
5.92099934e-10
6.66471021e-07
6.09192747e-10
6.66401217e-07
6.23024714e-10
6.66331768e-07
6.33924078e-10
6.66262812e-07
6.42187928e-10
6.66194468e-07
6.48086285e-10
6.66126834e-07
6.51862886e-10
6.66059994e-07
6.53738746e-10
6.65994017e-07
6.539137e-10
6.65928961e-07
6.52569078e-10
6.65864875e-07
6.49868369e-10
6.65801797e-07
6.45959803e-10
6.65739761e-07
6.40977719e-10
6.65678793e-07
6.35042765e-10
6.65618913e-07
6.28263969e-10
6.65560138e-07
6.20739674e-10
6.65502477e-07
6.1255742e-10
6.65445938e-07
6.03795708e-10
6.65390523e-07
5.94524686e-10
6.65336232e-07
5.84805849e-10
6.65283061e-07
5.74693646e-10
6.65231003e-07
5.64235311e-10
6.65180049e-07
5.53471883e-10
6.65130187e-07
5.42437306e-10
6.65081405e-07
5.31160531e-10
6.65033685e-07
5.19661617e-10
6.6498701e-07
5.07968545e-10
6.6494136e-07
4.96045784e-10
6.64896705e-07
4.84089335e-10
6.64853085e-07
4.71313231e-10
6.64810481e-07
4.60794903e-10
4.39681233e-10
6.66683151e-07
-1.35846666e-10
6.66751717e-07
-5.32264192e-10
6.66893305e-07
-1.07323769e-09
6.67125173e-07
-1.73031695e-09
6.67455783e-07
-2.43113418e-09
6.67878982e-07
-3.06281907e-09
6.68371097e-07
-3.49709477e-09
6.68893987e-07
-3.63354987e-09
6.69402565e-07
-3.4310153e-09
6.69853407e-07
-2.91222844e-09
6.7021159e-07
-2.1495265e-09
6.70455329e-07
-1.24459612e-09
6.70575694e-07
-3.06693568e-10
6.70586929e-07
5.61010268e-10
6.70502587e-07
1.28749382e-09
6.70346137e-07
1.82392784e-09
6.70144227e-07