/*--------------------------------*- C++ -*----------------------------------*\
| =========                 |                                                 |
| \\      /  F ield         | OpenFOAM: The Open Source CFD Toolbox           |
|  \\    /   O peration     | Version:  v2012                                 |
|   \\  /    A nd           | Website:  www.openfoam.com                      |
|    \\/     M anipulation  |                                                 |
\*---------------------------------------------------------------------------*/
FoamFile
{
    version     2.0;
    format      ascii;
    class       surfaceScalarField;
    location    "2.94";
    object      phiHbyA;
}
// * * * * * * * * * * * * * * * * * * * * * * * * * * * * * * * * * * * * * //

dimensions      [0 3 -1 0 0 0 0];
oriented        oriented;


internalField   nonuniform List<scalar> 
56481
(
6.66691905e-07
-5.71576717e-11
6.66770116e-07
-2.02154694e-10
6.66914459e-07
-3.94050679e-10
6.67134763e-07
-6.22661539e-10
6.674324e-07
-8.58247526e-10
6.67796816e-07
-1.058036e-09
6.68204708e-07
-1.17670503e-09
6.68623284e-07
-1.18144771e-09
6.69016317e-07
-1.06231983e-09
6.69350336e-07
-8.32299622e-10
6.69598894e-07
-5.20025014e-10
6.69741207e-07
-1.59234657e-10
6.69811096e-07
2.06549613e-10
6.69810954e-07
5.44742555e-10
6.69747885e-07
8.24967207e-10
6.69634245e-07
1.02738177e-09
6.69486031e-07
1.14334782e-09
6.69320095e-07
1.17365833e-09
6.69152108e-07
1.12673925e-09
6.68995548e-07
1.01589173e-09
6.68860505e-07
8.584687e-10
6.68751306e-07
6.77174904e-10
6.68669376e-07
5.02324448e-10
6.6861128e-07
3.65344847e-10
6.68563071e-07
3.01364511e-10
6.68500668e-07
3.38496679e-10
6.68394361e-07
4.90502179e-10
6.68215312e-07
7.53429884e-10
6.6794067e-07
1.10625013e-09
6.6755664e-07
1.5151261e-09
6.67059551e-07
1.94039354e-09
6.66455088e-07
2.34377354e-09
6.65756213e-07
2.69381074e-09
6.64980472e-07
2.96881351e-09
6.64147418e-07
3.1575231e-09
6.6327661e-07
3.25828487e-09
6.62386244e-07
3.27763407e-09
6.61492173e-07
3.22898935e-09
6.60606933e-07
3.13172763e-09
6.59738538e-07
3.01043862e-09
6.58889089e-07
2.89379157e-09
6.58053625e-07
2.81234538e-09
6.57219901e-07
2.79491911e-09
6.56369694e-07
2.86378419e-09
6.55481797e-07
3.02970447e-09
6.54536148e-07
3.28838761e-09
6.53518036e-07
3.61987432e-09
6.52421181e-07
3.99166663e-09
6.51248865e-07
4.36519187e-09
6.500129e-07
4.70397012e-09
6.48730835e-07
4.98113008e-09
6.47422294e-07
5.18403074e-09
6.46105463e-07
5.314727e-09
6.44794629e-07
5.38648014e-09
6.43499217e-07
5.4178616e-09
6.4222428e-07
5.42666624e-09
6.40971927e-07
5.42559668e-09
6.39743027e-07
5.4207044e-09
6.3853856e-07
5.41236779e-09
6.37360299e-07
5.39772057e-09
6.36210857e-07
5.37320861e-09
6.35093305e-07
5.33631484e-09
6.34010706e-07
5.28613477e-09
6.32965754e-07
5.22305727e-09
6.31960625e-07
5.14805678e-09
6.30996996e-07
5.06206386e-09
6.30076155e-07
4.96563843e-09
6.29199112e-07
4.85892759e-09
6.28366691e-07
4.74180248e-09
6.27579574e-07
4.6140091e-09
6.26838335e-07
4.47525626e-09
6.26143467e-07
4.32525223e-09
6.25495426e-07
4.16369596e-09
6.24894683e-07
3.99025671e-09
6.24341791e-07
3.80457865e-09
6.23837484e-07
3.60628803e-09
6.23382883e-07
3.39497672e-09
6.22980038e-07
3.1701422e-09
6.22630877e-07
2.93081862e-09
6.22335603e-07
2.67545612e-09
6.220961e-07
2.40250217e-09
6.2191396e-07
2.1121547e-09
6.21789678e-07
1.80453284e-09
6.21723517e-07
1.47853651e-09
6.21714643e-07
1.13400493e-09
6.21760564e-07
7.72395584e-10
6.21856348e-07
3.97068953e-10
6.21990269e-07
1.73748618e-11
6.22206304e-07
-3.86688793e-10
6.22508144e-07
-7.83006276e-10
6.22895505e-07
-1.18643956e-09
6.2336832e-07
-1.59819123e-09
6.23926534e-07
-2.01647667e-09
6.24570292e-07
-2.4400114e-09
6.25299445e-07
-2.8669389e-09
6.2611331e-07
-3.29441111e-09
6.2701062e-07
-3.71902244e-09
6.27989404e-07
-4.13701806e-09
6.29046841e-07
-4.54430748e-09
6.30179183e-07
-4.9365393e-09
6.31381723e-07
-5.30921764e-09
6.32648806e-07
-5.65781763e-09
6.33973868e-07
-5.97793004e-09
6.3534951e-07
-6.26540571e-09
6.36767594e-07
-6.51651274e-09
6.3821936e-07
-6.72806336e-09
6.39695574e-07
-6.89754805e-09
6.41186693e-07
-7.02320745e-09
6.42683048e-07
-7.10410125e-09
6.44175041e-07
-7.14012307e-09
6.45653337e-07
-7.13199613e-09
6.47109046e-07
-7.08121795e-09
6.48533889e-07
-6.99000111e-09
6.49920339e-07
-6.86117996e-09
6.51261717e-07
-6.6980897e-09
6.52552274e-07
-6.50445693e-09
6.53787224e-07
-6.28427469e-09
6.54962755e-07
-6.04167026e-09
6.56076011e-07
-5.78080092e-09
6.57125049e-07
-5.5057505e-09
6.58108779e-07
-5.22043252e-09
6.5902689e-07
-4.92852871e-09
6.59879767e-07
-4.63342832e-09
6.60668404e-07
-4.33819461e-09
6.61394313e-07
-4.04553337e-09
6.62059437e-07
-3.7577903e-09
6.6266607e-07
-3.47695154e-09
6.63216773e-07
-3.20464894e-09
6.63714306e-07
-2.94218419e-09
6.64161569e-07
-2.69055137e-09
6.64561543e-07
-2.45045986e-09
6.64917253e-07
-2.22236918e-09
6.65231724e-07
-2.00651975e-09
6.6550795e-07
-1.80296125e-09
6.65748867e-07
-1.61158691e-09
6.65957346e-07
-1.43216279e-09
6.66136174e-07
-1.2643552e-09
6.66288045e-07
-1.10776298e-09
6.66415549e-07
-9.61944356e-10
6.66521167e-07
-8.26440284e-10
6.66607262e-07
-7.00800602e-10
6.6667605e-07
-5.8460482e-10
6.66729552e-07
-4.77474463e-10
6.66769513e-07
-3.79065644e-10
6.66797326e-07
-2.89048439e-10
6.66814022e-07
-2.07065761e-10
6.66820336e-07
-1.32667836e-10
6.66816825e-07
-6.52808113e-11
6.66803509e-07
-3.67604848e-12
6.66785114e-07
5.06816277e-11
6.66761368e-07
1.00449352e-10
6.66732391e-07
1.44776375e-10
6.66698443e-07
1.84107642e-10
6.66659974e-07
2.18816617e-10
6.66617514e-07
2.49275835e-10
6.66571595e-07
2.75894387e-10
6.66522735e-07
2.99054687e-10
6.66471424e-07
3.19095687e-10
6.66418107e-07
3.36327364e-10
6.66363176e-07
3.51025986e-10
6.66306979e-07
3.6343259e-10
6.66249823e-07
3.73759993e-10
6.66191975e-07
3.82197186e-10
6.66133663e-07
3.88914577e-10
6.66075087e-07
3.9406659e-10
6.66016417e-07
3.97795117e-10
6.65957801e-07
4.00230997e-10
6.65899366e-07
4.0149561e-10
6.65841227e-07
4.01700917e-10
6.6578348e-07
4.00950561e-10
6.65726215e-07
3.99340214e-10
6.65669509e-07
3.96957186e-10
6.65613431e-07
3.93881243e-10
6.65558043e-07
3.90184761e-10
6.65503398e-07
3.85932324e-10
6.65449542e-07
3.81181664e-10
6.65396516e-07
3.75984131e-10
6.65344351e-07
3.7038484e-10
6.65293073e-07
3.64424329e-10
6.65242709e-07
3.58139264e-10
6.65193283e-07
3.51561692e-10
6.65144816e-07
3.44717586e-10
6.6509733e-07
3.37628363e-10
6.65050848e-07
3.30308918e-10
6.65005394e-07
3.22775023e-10
6.64961012e-07
3.15000412e-10
6.64917739e-07
3.07085523e-10
6.64875744e-07
2.98485367e-10
6.6483494e-07
2.91174658e-10
2.76053605e-10
6.66678231e-07
-6.92489264e-11
6.66739109e-07
-2.63738022e-10
6.66867725e-07
-5.2361485e-10
6.67079579e-07
-8.35589848e-10
6.67382089e-07
-1.16190358e-09
6.67768335e-07
-1.44549246e-09
6.68214611e-07
-1.62424061e-09
6.68684009e-07
-1.65211137e-09
6.69133957e-07
-1.51349647e-09
6.69524508e-07
-1.22401609e-09
6.69825612e-07
-8.22201695e-10
6.70023968e-07
-3.58476027e-10
6.70108462e-07
1.2084604e-10
6.70085905e-07
5.66485375e-10
6.69978189e-07
9.31983538e-10
6.69809218e-07
1.19581078e-09
6.69602979e-07
1.34919621e-09
6.69381768e-07
1.39458643e-09
6.69165997e-07
1.34230835e-09
6.68973462e-07
1.20829089e-09
6.68818346e-07
1.01350232e-09
6.68709942e-07
7.85545813e-10
6.68651641e-07
5.60653268e-10
6.68634651e-07
3.82498927e-10
6.68639632e-07
2.96717913e-10
6.68638456e-07
3.40172734e-10
6.68597025e-07
5.32583552e-10
6.68480096e-07
8.71161303e-10
6.68257435e-07
1.32987451e-09
6.67908804e-07
1.86488574e-09
6.67426598e-07
2.42389676e-09
6.66815807e-07
2.95603807e-09
6.6609177e-07
3.41950246e-09
6.65276758e-07
3.78566646e-09
6.64396404e-07
4.03990794e-09
6.63476702e-07
4.18020851e-09
6.62541831e-07
4.214915e-09
6.61612629e-07
4.16078413e-09
6.60705316e-07
4.04180938e-09
6.5983013e-07
3.88855685e-09
6.58989873e-07
3.73713036e-09
6.58178725e-07
3.62670989e-09
6.57381964e-07
3.59501804e-09
6.56577206e-07
3.67199022e-09
6.55737451e-07
3.87300311e-09
6.54835681e-07
4.19378326e-09
6.53850109e-07
4.60913718e-09
6.52768772e-07
5.07674297e-09
6.51592113e-07
5.54561963e-09
6.50332726e-07
5.96713765e-09
6.49012293e-07
6.30533894e-09
6.47656662e-07
6.5434163e-09
6.46290582e-07
6.68452341e-09
6.44933616e-07
6.74710946e-09
6.43598207e-07
6.75686439e-09
6.42290051e-07
6.73832953e-09
6.41010136e-07
6.7089177e-09
6.39757378e-07
6.67675279e-09
6.38530849e-07
6.64205704e-09
6.37331007e-07
6.60058191e-09
6.3615986e-07
6.54722418e-09
6.35020422e-07
6.47846314e-09
6.33915942e-07
6.3931605e-09
6.32849296e-07
6.2920804e-09
6.31822704e-07
6.17685427e-09
6.30837742e-07
6.04906023e-09
6.29895502e-07
5.90974191e-09
6.28996781e-07
5.75934416e-09
6.2814221e-07
5.597905e-09
6.27332322e-07
5.42526989e-09
6.26567584e-07
5.24121546e-09
6.25848417e-07
5.04549362e-09
6.2517524e-07
4.83780998e-09
6.24548519e-07
4.61778578e-09
6.23968833e-07
4.38495079e-09
6.23436953e-07
4.13874232e-09
6.22953906e-07
3.87849531e-09
6.22520991e-07
3.60343557e-09
6.22139497e-07
3.31260458e-09
6.21810319e-07
3.00484396e-09
6.21533808e-07
2.67914798e-09
6.21310872e-07
2.33512175e-09
6.21142266e-07
1.973031e-09
6.21028776e-07
1.59172846e-09
6.20972638e-07
1.18958422e-09
6.20977576e-07
7.66586197e-10
6.21050985e-07
3.22491107e-10
6.21204032e-07
-1.36940397e-10
6.21417322e-07
-6.01130658e-10
6.21709926e-07
-1.07681791e-09
6.22084868e-07
-1.56277859e-09
6.22545438e-07
-2.06025678e-09
6.23094533e-07
-2.567161e-09
6.23733737e-07
-3.08092198e-09
6.24463869e-07
-3.59889914e-09
6.2528517e-07
-4.11766347e-09
6.26197113e-07
-4.63304385e-09
6.27198249e-07
-5.14036116e-09
6.28286109e-07
-5.63450154e-09
6.29457118e-07
-6.11000598e-09
6.30706539e-07
-6.56121439e-09
6.32028457e-07
-6.98242181e-09
6.33415809e-07
-7.36806706e-09
6.3486045e-07
-7.71291674e-09
6.36353261e-07
-8.01226513e-09
6.37884303e-07
-8.26209933e-09
6.39443002e-07
-8.45927516e-09
6.41018369e-07
-8.60161741e-09
6.42599245e-07
-8.6880143e-09
6.44174552e-07
-8.7184413e-09
6.45733545e-07
-8.6939551e-09
6.47266044e-07
-8.61661888e-09
6.4876264e-07
-8.48941698e-09
6.50214861e-07
-8.31612409e-09
6.51615299e-07
-8.10113948e-09
6.52957687e-07
-7.84933518e-09
6.54236939e-07
-7.5658874e-09
6.55449148e-07
-7.25610244e-09
6.56591545e-07
-6.92527988e-09
6.57662436e-07
-6.57858056e-09
6.58661115e-07
-6.2209065e-09
6.59587759e-07
-5.85682626e-09
6.60443321e-07
-5.49050428e-09
6.61229411e-07
-5.12566483e-09
6.61948187e-07
-4.76556035e-09
6.62602245e-07
-4.41297519e-09
6.63194516e-07
-4.07023377e-09
6.63728181e-07
-3.73921447e-09
6.64206583e-07
-3.42138508e-09
6.64633164e-07
-3.11783534e-09
6.65011398e-07
-2.82930922e-09
6.65344746e-07
-2.55625138e-09
6.65636614e-07
-2.29884852e-09
6.65890324e-07
-2.05706566e-09
6.66109088e-07
-1.83068605e-09
6.66295989e-07
-1.61934515e-09
6.66453963e-07
-1.42256457e-09
6.66585793e-07
-1.23978832e-09
6.66694094e-07
-1.07040818e-09
6.667813e-07
-9.13782464e-10
6.66849641e-07
-7.69256783e-10
6.66901121e-07
-6.36185615e-10
6.66937524e-07
-5.13969964e-10
6.66960463e-07
-4.02093897e-10
6.66971423e-07
-3.00098143e-10
6.66971783e-07
-2.07514599e-10
6.66962859e-07
-1.23831036e-10
6.66945994e-07
-4.84906135e-11
6.66922497e-07
1.97680568e-11
6.66891993e-07
8.1139991e-11
6.66856321e-07
1.36084603e-10
6.66816087e-07
1.84982208e-10
6.66771923e-07
2.28258372e-10
6.66724326e-07
2.66411874e-10
6.66673734e-07
2.99874162e-10
6.66620572e-07
3.29070154e-10
6.66565242e-07
3.54404308e-10
6.66508117e-07
3.76244739e-10
6.66449544e-07
3.94926523e-10
6.66389847e-07
4.10753316e-10
6.66329313e-07
4.23997581e-10
6.66268203e-07
4.34904114e-10
6.66206742e-07
4.436927e-10
6.6614513e-07
4.50562501e-10
6.66083539e-07
4.55693917e-10
6.6602212e-07
4.59251914e-10
6.65961001e-07
4.61387504e-10
6.65900295e-07
4.62239659e-10
6.65840098e-07
4.61935565e-10
6.65780495e-07
4.60592119e-10
6.65721556e-07
4.58316518e-10
6.65663346e-07
4.55206024e-10
6.65605916e-07
4.51349094e-10
6.65549312e-07
4.46825775e-10
6.65493575e-07
4.41707425e-10
6.65438736e-07
4.36057916e-10
6.65384823e-07
4.29934179e-10
6.65331858e-07
4.23386189e-10
6.6527986e-07
4.16458387e-10
6.65228845e-07
4.09189815e-10
6.65178827e-07
4.0161453e-10
6.65129819e-07
3.93760353e-10
6.65081832e-07
3.85650027e-10
6.65034876e-07
3.77298325e-10
6.64988961e-07
3.68722984e-10
6.64944103e-07
3.59892604e-10
6.6490027e-07
3.50945707e-10
6.64857513e-07
3.41287076e-10
6.64815248e-07
3.3339596e-10
3.17295926e-10
6.66685643e-07
-8.79502227e-11
6.66754344e-07
-3.32138648e-10
6.66890802e-07
-6.59661224e-10
6.67108595e-07
-1.0528343e-09
6.67413005e-07
-1.46565752e-09
6.67796539e-07
-1.82831859e-09
6.68236645e-07
-2.06362596e-09
6.68698582e-07
-2.11333201e-09
6.69142203e-07
-1.95641873e-09
6.69529352e-07
-1.61049851e-09
6.69829661e-07
-1.12189893e-09
6.7002411e-07
-5.52405599e-10
6.70114701e-07
3.11731197e-11
6.70113558e-07
5.67946561e-10
6.70030363e-07
1.01540812e-09
6.69884147e-07
1.34215207e-09
6.69696986e-07
1.53638532e-09
6.69491355e-07
1.60018768e-09
6.6928795e-07
1.5456501e-09
6.69104702e-07
1.3914586e-09
6.68955924e-07
1.16219061e-09
6.6885093e-07
8.90447929e-10
6.68792026e-07
6.19462843e-10
6.6877224e-07
4.02165366e-10
6.68774316e-07
2.94463292e-10
6.68770575e-07
3.43657005e-10
6.68726882e-07
5.75938011e-10
6.68609067e-07
9.88553968e-10
6.68388487e-07
1.54994592e-09
6.68045969e-07
2.20680762e-09
6.67573824e-07
2.89535679e-09
6.66975841e-07
3.55324498e-09
6.66265517e-07
4.12895505e-09
6.65463196e-07
4.58701738e-09
6.64592927e-07
4.90910514e-09
6.63679672e-07
5.09228771e-09
6.6274713e-07
5.14617376e-09
6.61816105e-07
5.09041988e-09
6.609031e-07
4.95331895e-09
6.60018878e-07
4.77118318e-09
6.59166928e-07
4.58739026e-09
6.58342211e-07
4.44965313e-09
6.57530811e-07
4.40457038e-09
6.56711155e-07
4.48973601e-09
6.55857056e-07
4.72513752e-09
6.54942246e-07
5.10658788e-09
6.53945422e-07
5.60392605e-09
6.52854582e-07
6.16552783e-09
6.51669486e-07
6.72864919e-09
6.50401546e-07
7.2330106e-09
6.49071135e-07
7.63368663e-09
6.47703112e-07
7.90938757e-09
6.46321848e-07
8.06375395e-09
6.44947193e-07
8.1197581e-09
6.43592373e-07
8.10971232e-09
6.42264079e-07
8.06469375e-09
6.40964223e-07
8.00689388e-09
6.39692393e-07
7.94676202e-09
6.38448018e-07
7.88467579e-09
6.37231646e-07
7.81526905e-09
6.3604521e-07
7.73205247e-09
6.34891583e-07
7.63056158e-09
6.33773884e-07
7.5094152e-09
6.32694886e-07
7.36971858e-09
6.31656733e-07
7.21373382e-09
6.30660925e-07
7.04368131e-09
6.29708464e-07
6.86110067e-09
6.28800037e-07
6.66675322e-09
6.27936146e-07
6.46085915e-09
6.27117188e-07
6.2433705e-09
6.26343491e-07
6.01413097e-09
6.25615345e-07
5.77293026e-09
6.24933042e-07
5.51947376e-09
6.24296922e-07
5.25333189e-09
6.23707433e-07
4.97392881e-09
6.23165177e-07
4.68054572e-09
6.22670947e-07
4.37232836e-09
6.22225728e-07
4.04830987e-09
6.21830618e-07
3.70741672e-09
6.21486708e-07
3.34850082e-09
6.21195174e-07
2.97047256e-09
6.20957701e-07
2.57243049e-09
6.20777008e-07
2.15360828e-09
6.20655724e-07
1.71298003e-09
6.20596051e-07
1.24937087e-09
6.20597276e-07
7.6570412e-10
6.20655222e-07
2.65124071e-10
6.20775938e-07
-2.56796637e-10
6.20973075e-07
-7.97655008e-10
6.21250681e-07
-1.35379452e-09
6.21613372e-07
-1.92475764e-09
6.22063405e-07
-2.50951558e-09
6.22603426e-07
-3.10635244e-09
6.23235949e-07
-3.71255394e-09
6.2396273e-07
-4.32472341e-09
6.24784763e-07
-4.93866898e-09
6.25702202e-07
-5.54938527e-09
6.26714198e-07
-6.15118718e-09
6.27818745e-07
-6.73780974e-09
6.2901258e-07
-7.30253257e-09
6.30291091e-07
-7.83835133e-09
6.31648278e-07
-8.33817284e-09
6.33076759e-07
-8.79505719e-09
6.34567838e-07
-9.20245644e-09
6.36111629e-07
-9.55447447e-09
6.37697231e-07
-9.84608634e-09
6.39312964e-07
-1.00733696e-08
6.40946642e-07
-1.02336416e-08
6.4258587e-07
-1.03255834e-08
6.44218354e-07
-1.03492724e-08
6.45832208e-07
-1.03061704e-08
6.47416225e-07
-1.01990222e-08
6.48960123e-07
-1.0031735e-08
6.50454736e-07
-9.80919955e-09
6.51892152e-07
-9.53706792e-09
6.53265797e-07
-9.22154872e-09
6.54570463e-07
-8.86918488e-09
6.55802291e-07
-8.48662933e-09
6.56958711e-07
-8.08046961e-09
6.58038351e-07
-7.65706332e-09
6.59040919e-07
-7.22239287e-09
6.59967075e-07
-6.78197809e-09
6.60818297e-07
-6.3407973e-09
6.61596738e-07
-5.90325178e-09
6.62305095e-07
-5.47313735e-09
6.62946486e-07
-5.05365786e-09
6.63524335e-07
-4.6474439e-09
6.64042271e-07
-4.25657796e-09
6.64504041e-07
-3.88264468e-09
6.64913433e-07
-3.52677793e-09
6.65274225e-07
-3.1897066e-09
6.65590128e-07
-2.87181267e-09
6.65864753e-07
-2.57318066e-09
6.66101578e-07
-2.2936425e-09
6.66303929e-07
-2.03282892e-09
6.66474966e-07
-1.79021238e-09
6.6661768e-07
-1.56514075e-09
6.66734875e-07
-1.35687591e-09
6.66829178e-07
-1.16462752e-09
6.66903042e-07
-9.87584732e-10
6.6695878e-07
-8.24950209e-10
6.66998584e-07
-6.75956887e-10
6.67024499e-07
-5.39858787e-10
6.67038331e-07
-4.15902261e-10
6.67041569e-07
-3.03309741e-10
6.67035373e-07
-2.01287856e-10
6.67020602e-07
-1.09029115e-10
6.66997942e-07
-2.58057346e-11
6.6696861e-07
4.91301435e-11
6.66933539e-07
1.16209814e-10
6.66893551e-07
1.76060262e-10
6.66849262e-07
2.29248182e-10
6.66801211e-07
2.76276767e-10
6.66749928e-07
3.17655349e-10
6.6669589e-07
3.53864767e-10
6.66639542e-07
3.85366106e-10
6.66581294e-07
4.12596213e-10
6.66521522e-07
4.35958458e-10
6.66460565e-07
4.55822612e-10
6.6639873e-07
4.72526731e-10
6.66336287e-07
4.8637733e-10
6.66273476e-07
4.97652014e-10
6.66210504e-07
5.06601266e-10
6.66147551e-07
5.13452394e-10
6.66084771e-07
5.18410789e-10
6.66022298e-07
5.21663242e-10
6.65960245e-07
5.23379466e-10
6.6589871e-07
5.23714369e-10
6.65837777e-07
5.22808581e-10
6.6577752e-07
5.20790454e-10
6.65718002e-07
5.1777704e-10
6.65659278e-07
5.13874118e-10
6.65601394e-07
5.09177718e-10
6.65544391e-07
5.03774752e-10
6.65488303e-07
4.97742822e-10
6.65433157e-07
4.91151599e-10
6.65378978e-07
4.8406339e-10
6.65325782e-07
4.76532944e-10
6.65273584e-07
4.68608837e-10
6.65222395e-07
4.60333361e-10
6.65172221e-07
4.51743192e-10
6.6512307e-07
4.42868373e-10
6.65074944e-07
4.33733667e-10
6.65027847e-07
4.24355292e-10
6.64981777e-07
4.14753129e-10
6.6493674e-07
4.0489324e-10
6.64892722e-07
3.94921459e-10
6.64849819e-07
3.8416796e-10
6.64807954e-07
3.75160394e-10
3.56907267e-10
6.66681134e-07
-1.02370802e-10
6.66744798e-07
-3.9590429e-10
6.66877737e-07
-7.92802033e-10
6.6709694e-07
-1.27228041e-09
6.67410604e-07
-1.77958691e-09
6.67812561e-07
-2.23056969e-09
6.68279594e-07
-2.53097902e-09
6.68774337e-07
-2.60840033e-09
6.69252634e-07
-2.43502551e-09
6.69672191e-07
-2.03033894e-09
6.69999785e-07
-1.4497443e-09
6.70216097e-07
-7.68928351e-10
6.70315406e-07
-6.85376438e-11
6.70305609e-07
5.77736456e-10
6.7020517e-07
1.11590865e-09
6.70037006e-07
1.51043646e-09
6.69826491e-07
1.7470671e-09
6.69598969e-07
1.82790225e-09
6.69378051e-07
1.76677447e-09
6.6918438e-07
1.58533937e-09
6.69034377e-07
1.31239794e-09
6.68938402e-07
9.86614911e-10
6.68898435e-07
6.59600495e-10
6.68906087e-07
3.94657339e-10
6.6894186e-07
2.58821254e-10
6.68976317e-07
3.09344911e-10
6.68973256e-07
5.79180064e-10
6.68894674e-07
1.0673624e-09
6.68707173e-07
1.73771455e-09
6.68387697e-07
2.5265875e-09
6.67926573e-07
3.35681671e-09
6.67327581e-07
4.15260195e-09
6.66605791e-07
4.85114003e-09
6.65784166e-07
5.40906882e-09
6.64889919e-07
5.80381178e-09
6.63951317e-07
6.03138611e-09
6.6299519e-07
6.10283969e-09
6.6204501e-07
6.0411831e-09
6.61119239e-07
5.87972025e-09
6.60229682e-07
5.66141737e-09
6.59379885e-07
5.43790947e-09
6.58563916e-07
5.26638106e-09
6.57766129e-07
5.20314702e-09
6.56962479e-07
5.29419885e-09
6.56123719e-07
5.56472581e-09
6.55220238e-07
6.01090535e-09
6.54227651e-07
6.59734885e-09
6.53131782e-07
7.26222774e-09
6.51931605e-07
7.92964782e-09
6.50639246e-07
8.5261808e-09
6.49277007e-07
8.99672762e-09
6.47872325e-07
9.3148626e-09
6.46452202e-07
9.4846635e-09
6.45038683e-07
9.53405679e-09
6.43646495e-07
9.50267276e-09
6.42283094e-07
9.42885781e-09
6.4095056e-07
9.34017852e-09
6.39648276e-07
9.24977989e-09
6.38375328e-07
9.15833872e-09
6.37131939e-07
9.0593525e-09
6.35919809e-07
8.94485303e-09
6.34741676e-07
8.80934121e-09
6.33600567e-07
8.65114587e-09
6.32499165e-07
8.47171631e-09
6.31439487e-07
8.27398175e-09
6.30422861e-07
8.06085198e-09
6.29450077e-07
7.83440328e-09
6.28521583e-07
7.59573983e-09
6.27637635e-07
7.34527566e-09
6.2679838e-07
7.08306901e-09
6.26003908e-07
6.80902154e-09
6.25254288e-07
6.52294545e-09
6.24549607e-07
6.22452648e-09
6.23890025e-07
5.91326244e-09
6.23275829e-07
5.58845012e-09
6.22707481e-07
5.24919488e-09
6.22185655e-07
4.89443266e-09
6.21711245e-07
4.52297506e-09
6.21285348e-07
4.1335448e-09
6.20909241e-07
3.72481604e-09
6.20584401e-07
3.29549664e-09
6.20312583e-07
2.84440928e-09
6.20095784e-07
2.3705438e-09
6.19935798e-07
1.87307e-09
6.19833751e-07
1.35147475e-09
6.19793351e-07
8.06054029e-10
6.19823814e-07
2.34482093e-10
6.19926152e-07
-3.59475279e-10
6.20104143e-07
-9.75911248e-10
6.20362882e-07
-1.61281934e-09
6.20707327e-07
-2.26953276e-09
6.21142161e-07
-2.94472073e-09
6.21671402e-07
-3.63600568e-09
6.22298515e-07
-4.34012644e-09
6.23026283e-07
-5.05300043e-09
6.23856685e-07
-5.7696308e-09
6.24790752e-07
-6.48406444e-09
6.25828367e-07
-7.18946765e-09
6.26968072e-07
-7.87823332e-09
6.28206907e-07
-8.54213888e-09
6.29540289e-07
-9.17255372e-09
6.30961932e-07
-9.76068386e-09
6.32463845e-07
-1.02978827e-08
6.340364e-07
-1.07759626e-08
6.35668473e-07
-1.11875332e-08
6.37347666e-07
-1.1526294e-08
6.39060598e-07
-1.17873382e-08
6.40793244e-07
-1.19673396e-08
6.42531316e-07
-1.20647163e-08
6.44260655e-07
-1.20796741e-08
6.45967613e-07
-1.20141858e-08
6.47639399e-07
-1.18718542e-08
6.49264378e-07
-1.16577417e-08
6.50832302e-07
-1.13781266e-08
6.52334466e-07
-1.10402062e-08
6.53763798e-07
-1.06518209e-08
6.55114874e-07
-1.02211639e-08
6.56383877e-07
-9.75649337e-09
6.57568501e-07
-9.26591015e-09
6.58667822e-07
-8.75715564e-09
6.59682145e-07
-8.23743927e-09
6.6061283e-07
-7.71333893e-09
6.61462121e-07
-7.19071633e-09
6.62232976e-07
-6.67468558e-09
6.62928899e-07
-6.16959264e-09
6.63553798e-07
-5.67904389e-09
6.64111854e-07
-5.20594119e-09
6.64607402e-07
-4.75252421e-09
6.6504484e-07
-4.32043942e-09
6.65428547e-07
-3.91080332e-09
6.65762822e-07
-3.52426245e-09
6.66051831e-07
-3.16106699e-09
6.66299571e-07
-2.8211342e-09
6.6650985e-07
-2.50410397e-09
6.66686265e-07
-2.20939844e-09
6.66832195e-07
-1.93627097e-09
6.669508e-07
-1.68385002e-09
6.67045025e-07
-1.45118387e-09
6.67117605e-07
-1.23726992e-09
6.67171049e-07
-1.04107382e-09
6.67207609e-07
-8.61537836e-10
6.6722923e-07
-6.97592711e-10
6.67237565e-07
-5.48199634e-10
6.67234061e-07
-4.12398148e-10
6.67220068e-07
-2.8931636e-10
6.671969e-07
-1.78120595e-10
6.67165833e-07
-7.79638639e-11
6.67128193e-07
1.18439514e-11
6.67085254e-07
9.20808818e-11
6.67037685e-07
1.63804915e-10
6.66986156e-07
2.2762615e-10
6.66931281e-07
2.84166288e-10
6.66873603e-07
3.34005274e-10
6.66813596e-07
3.77718524e-10
6.66751674e-07
4.15847954e-10
6.66688205e-07
4.48898362e-10
6.66623526e-07
4.77342018e-10
6.66557937e-07
5.01615502e-10
6.6649171e-07
5.22118645e-10
6.66425089e-07
5.3921706e-10
6.66358292e-07
5.53243235e-10
6.66291514e-07
5.64499281e-10
6.66224924e-07
5.73258556e-10
6.66158674e-07
5.79769793e-10
6.66092893e-07
5.8425817e-10
6.66027693e-07
5.86928678e-10
6.65963169e-07
5.8796753e-10
6.65899402e-07
5.87544475e-10
6.65836459e-07
5.85813241e-10
6.65774396e-07
5.82913706e-10
6.65713259e-07
5.78972978e-10
6.65653085e-07
5.74105446e-10
6.65593905e-07
5.68414555e-10
6.65535741e-07
5.61993575e-10
6.65478612e-07
5.54925471e-10
6.65422531e-07
5.47284501e-10
6.65367507e-07
5.39136884e-10
6.65313548e-07
5.30540606e-10
6.65260657e-07
5.21546949e-10
6.65208836e-07
5.12200396e-10
6.65158083e-07
5.02539538e-10
6.65108398e-07
4.92596167e-10
6.65059775e-07
4.82397052e-10
6.65012209e-07
4.71960173e-10
6.64965689e-07
4.61310013e-10
6.64920208e-07
4.50411685e-10
6.64875709e-07
4.39449488e-10
6.64832215e-07
4.27707947e-10
6.6478913e-07
4.18201886e-10
3.99082928e-10
6.66682416e-07
-1.18136191e-10
6.66748954e-07
-4.62441939e-10
6.66886532e-07
-9.30396785e-10
6.67111486e-07
-1.49720409e-09
6.67431276e-07
-2.09929539e-09
6.67839222e-07
-2.63841674e-09
6.68312146e-07
-3.00381333e-09
6.68813368e-07
-3.10954421e-09
6.69299796e-07
-2.92138591e-09
6.69729922e-07
-2.4604104e-09
6.70070669e-07
-1.79045572e-09
6.70301825e-07
-1.00006645e-09
6.70418938e-07
-1.8564806e-10
6.7042378e-07
5.72789714e-10
6.70335959e-07
1.20355781e-09
6.70178435e-07
1.66774429e-09
6.6997691e-07
1.94836117e-09
6.69756873e-07
2.04769752e-09
6.69542189e-07
1.98121209e-09
6.69353943e-07
1.77334122e-09
6.69209231e-07
1.45687309e-09
6.69119528e-07
1.07609447e-09
6.69088311e-07
6.90622723e-10
6.69108078e-07
3.74736719e-10
6.69158585e-07
2.08197448e-10
6.69208172e-07
2.59649609e-10
6.69218973e-07
5.68252849e-10
6.69152941e-07
1.13323585e-09
6.68977802e-07
1.91266652e-09
6.68671221e-07
2.83296305e-09
6.68223199e-07
3.80461844e-09
6.67636502e-07
4.73906793e-09
6.66925008e-07
5.56239172e-09
6.66110681e-07
6.22314304e-09
6.65220103e-07
6.69412915e-09
6.64281289e-07
6.96993065e-09
6.63321138e-07
7.06271405e-09
6.62363456e-07
6.99858092e-09
6.61427276e-07
6.81560687e-09
6.60525171e-07
6.56322263e-09
6.59661503e-07
6.30127273e-09
6.58831006e-07
6.09656861e-09
6.58018397e-07
6.01544382e-09
6.57199677e-07
6.11260034e-09
6.56345427e-07
6.41864955e-09
6.55425731e-07
6.93026457e-09
6.5441579e-07
7.60694238e-09
6.53300884e-07
8.37677526e-09
6.52079376e-07
9.15078682e-09
6.50762881e-07
9.84229976e-09
6.49373494e-07
1.03857317e-08
6.47938887e-07
1.07490812e-08
6.46486713e-07
1.09364463e-08
6.4503993e-07
1.09804471e-08
6.43614228e-07
1.09279822e-08
6.42217898e-07
1.08247953e-08
6.40853635e-07
1.07040506e-08
6.39521208e-07
1.05818186e-08
6.38219907e-07
1.04592545e-08
6.36950046e-07
1.03288318e-08
6.35713359e-07
1.01811629e-08
6.34512578e-07
1.0009749e-08
6.33350693e-07
9.812663e-09
6.32230304e-07
9.59174271e-09
6.31153291e-07
9.35063833e-09
6.30120788e-07
9.09300413e-09
6.29133347e-07
8.82150038e-09
6.28191142e-07
8.53760803e-09
6.27294134e-07
8.24195399e-09
6.26442172e-07
7.93470868e-09
6.25635053e-07
7.61582724e-09
6.24872561e-07
7.28513216e-09
6.24154519e-07
6.94227189e-09
6.23480845e-07
6.58665096e-09
6.22851604e-07
6.21741723e-09
6.22267057e-07
5.83347878e-09
6.21727702e-07
5.43353788e-09
6.21234289e-07
5.01615178e-09
6.20787831e-07
4.57978127e-09
6.20389607e-07
4.1228343e-09
6.20041181e-07
3.64373307e-09
6.19744443e-07
3.14097414e-09
6.19501658e-07
2.61317424e-09
6.19315475e-07
2.05911581e-09
6.19189052e-07
1.47778527e-09
6.19126437e-07
8.68593578e-10
6.19129414e-07
2.31479785e-10
6.19203368e-07
-4.33382154e-10
6.19353267e-07
-1.12574971e-09
6.19585399e-07
-1.8448764e-09
6.1990545e-07
-2.58948541e-09
6.2031867e-07
-3.3578159e-09
6.20830045e-07
-4.14722755e-09
6.21444194e-07
-4.95409511e-09
6.22165147e-07
-5.77374663e-09
6.22996118e-07
-6.60036679e-09
6.23939281e-07
-7.42696521e-09
6.24995528e-07
-8.24542619e-09
6.26164216e-07
-9.0466079e-09
6.2744294e-07
-9.8205252e-09
6.28827345e-07
-1.05565987e-08
6.30311001e-07
-1.12439587e-08
6.3188536e-07
-1.18718406e-08
6.3353981e-07
-1.24299934e-08
6.35261839e-07
-1.29091271e-08
6.37037302e-07
-1.33013077e-08
6.38850788e-07
-1.36003623e-08
6.40686059e-07
-1.3802138e-08
6.42526542e-07
-1.39047179e-08
6.44355834e-07
-1.39084779e-08
6.46158193e-07
-1.38160511e-08
6.47918973e-07
-1.36321381e-08
6.49624994e-07
-1.33632667e-08
6.51264819e-07
-1.30174581e-08
6.52828932e-07
-1.26038292e-08
6.54309818e-07
-1.21322237e-08
6.55701959e-07
-1.16128314e-08
6.57001751e-07
-1.10558235e-08
6.58207363e-07
-1.04710731e-08
6.5931855e-07
-9.86790925e-09
6.60336444e-07
-9.2549174e-09
6.61263332e-07
-8.63982983e-09
6.62102433e-07
-8.02944069e-09
6.62857689e-07
-7.42958566e-09
6.63533568e-07
-6.84513696e-09
6.64134892e-07
-6.28005447e-09
6.64666685e-07
-5.73744361e-09
6.65134049e-07
-5.21962024e-09
6.6554206e-07
-4.72820366e-09
6.65895683e-07
-4.26420166e-09
6.66199715e-07
-3.82809026e-09
6.66458737e-07
-3.41990484e-09
6.66677084e-07
-3.03931661e-09
6.66858825e-07
-2.68569897e-09
6.67007752e-07
-2.35819753e-09
6.67127378e-07
-2.05578581e-09
6.67220933e-07
-1.77731029e-09
6.67291365e-07
-1.52153612e-09
6.67341343e-07
-1.28718401e-09
6.67373284e-07
-1.07296518e-09
6.67389403e-07
-8.77622827e-10
6.67391784e-07
-6.99952093e-10
6.67382381e-07
-5.38787461e-10
6.67362977e-07
-3.92992506e-10
6.67335078e-07
-2.6141901e-10
6.67299957e-07
-1.43003371e-10
6.67258761e-07
-3.67703918e-11
6.67211863e-07
5.87230144e-11
6.67160019e-07
1.43904919e-10
6.6710408e-07
2.19713045e-10
6.67044782e-07
2.86886612e-10
6.66982733e-07
3.46172946e-10
6.66918435e-07
3.98257159e-10
6.66852332e-07
4.4377078e-10
6.66784821e-07
4.83305003e-10
6.66716255e-07
5.17409511e-10
6.66646945e-07
5.46594292e-10
6.66577172e-07
5.7133017e-10
6.66507184e-07
5.92048909e-10
6.66437196e-07
6.09146014e-10
6.66367399e-07
6.22982011e-10
6.66297955e-07
6.33885115e-10
6.66229004e-07
6.42152399e-10
6.66160664e-07
6.48053872e-10
6.66093033e-07
6.5183327e-10
6.66026196e-07
6.53711614e-10
6.65960221e-07
6.53888752e-10
6.65895167e-07
6.52546037e-10
6.65831082e-07
6.49846978e-10
6.65768005e-07
6.45939833e-10
6.65705969e-07
6.40958964e-10
6.65645001e-07
6.35025045e-10
6.65585121e-07
6.28247124e-10
6.65526345e-07
6.20723564e-10
6.65468684e-07
6.12541921e-10
6.65412144e-07
6.03780711e-10
6.65356728e-07
5.94510092e-10
6.65302436e-07
5.84791572e-10
6.65249264e-07
5.74679609e-10
6.65197205e-07
5.6422145e-10
6.65146249e-07
5.53458149e-10
6.65096386e-07
5.42423667e-10
6.65047602e-07
5.31146978e-10
6.64999881e-07
5.19648164e-10
6.64953204e-07
5.07955237e-10
6.64907554e-07
4.96032688e-10
6.64862893e-07
4.84076613e-10
6.64819285e-07
4.71301134e-10
6.64776605e-07
4.60784818e-10
4.39674967e-10
6.66683091e-07
-1.34473152e-10
6.66751534e-07
-5.30894319e-10
6.66892971e-07
-1.0718782e-09
6.67124716e-07
-1.7289765e-09
6.67455235e-07
-2.42982134e-09
6.67878352e-07
-3.06154195e-09
6.68370378e-07
-3.49586142e-09
6.68893179e-07
-3.63236867e-09
6.69401676e-07
-3.42989498e-09
6.6985245e-07
-2.91117803e-09
6.70210573e-07
-2.14855541e-09
6.7045426e-07
-1.24371586e-09
6.70574562e-07
-3.05914609e-10
6.70585772e-07
5.61697578e-10
6.70501415e-07
1.28807001e-09
6.70344965e-07
1.82438e-09
6.70143061e-07