/*--------------------------------*- C++ -*----------------------------------*\
| =========                 |                                                 |
| \\      /  F ield         | OpenFOAM: The Open Source CFD Toolbox           |
|  \\    /   O peration     | Version:  v2012                                 |
|   \\  /    A nd           | Website:  www.openfoam.com                      |
|    \\/     M anipulation  |                                                 |
\*---------------------------------------------------------------------------*/
FoamFile
{
    version     2.0;
    format      ascii;
    class       volScalarField;
    location    "2.94";
    object      rAU;
}
// * * * * * * * * * * * * * * * * * * * * * * * * * * * * * * * * * * * * * //

dimensions      [0 0 1 0 0 0 0];


internalField   nonuniform List<scalar> 
28416
(
0.000505955642
0.000505962144
0.000505960346
0.000505957866
0.000505954837
0.000505951537
0.000505948336
0.000505945605
0.000505943626
0.000505942554
0.000505942418
0.000505943171
0.000505939578
0.000505935564
0.000505932693
0.000505931109
0.000505930792
0.000505931616
0.000505933373
0.00050593581
0.000505938652
0.00050594161
0.000505944287
0.000505946322
0.000505947414
0.000505947419
0.000505946389
0.000505944564
0.000505942336
0.000505940187
0.000505938598
0.000505937977
0.000505938605
0.000505940623
0.000505944035
0.000505948733
0.000505954519
0.000505961123
0.000505968228
0.000505975483
0.000505982535
0.000505989058
0.000505994799
0.000505999626
0.000506003556
0.000506006775
0.000506009609
0.000506012476
0.000506015803
0.000506019938
0.00050602508
0.000506031254
0.000506038318
0.000506046028
0.000506054107
0.000506062315
0.000506070489
0.000506078552
0.000506086494
0.000506094333
0.000506102096
0.000506109791
0.000506117411
0.000506124934
0.000506132337
0.000506139598
0.000506146707
0.000506153655
0.000506160438
0.00050616706
0.000506173518
0.000506179813
0.00050618595
0.000506191927
0.000506197744
0.000506203403
0.000506208896
0.000506214211
0.000506219351
0.000506224344
0.000506229188
0.000506233872
0.000506238399
0.000506242782
0.000506247036
0.000506251171
0.000506255189
0.000506259087
0.000506257565
0.000506253493
0.000506248803
0.000506243492
0.00050623757
0.000506231045
0.000506223932
0.000506216247
0.000506208019
0.000506199283
0.000506190077
0.000506180449
0.000506170455
0.000506160156
0.000506149619
0.000506138913
0.000506128116
0.0005061173
0.000506106541
0.000506095912
0.000506085482
0.000506075315
0.000506065473
0.000506056004
0.000506046954
0.00050603836
0.000506030249
0.000506022638
0.000506015543
0.000506008964
0.000506002901
0.000505997346
0.000505992284
0.0005059877
0.000505983571
0.000505979877
0.000505976591
0.000505973687
0.000505971142
0.000505968928
0.000505967018
0.000505965391
0.000505964019
0.000505962881
0.000505961956
0.000505961222
0.00050596066
0.000505960254
0.000505959986
0.000505959839
0.0005059598
0.000505959854
0.000505959988
0.000505960187
0.000505960443
0.00050596074
0.000505961073
0.000505961433
0.000505961816
0.00050596222
0.000505962653
0.00050596233
0.000505961863
0.000505961503
0.000505961241
0.000505961065
0.00050596097
0.000505960945
0.000505960981
0.000505961073
0.000505961212
0.000505961392
0.000505961609
0.000505961858
0.000505962134
0.000505962436
0.000505962758
0.000505963098
0.000505963454
0.000505963824
0.000505964205
0.000505964595
0.000505964993
0.000505965398
0.000505965805
0.000505966218
0.000505966632
0.000505967046
0.000505967462
0.000505967877
0.00050596829
0.000505968701
0.00050596911
0.000505969516
0.000505969918
0.000505970317
0.000505970712
0.000505971101
0.000505971487
0.000505971871
0.000505972229
0.000505980307
0.000505949803
0.000505956068
0.000505953934
0.000505951006
0.000505947431
0.000505943544
0.0005059398
0.000505936663
0.000505934478
0.000505933424
0.000505933508
0.000505934595
0.000505934246
0.000505931451
0.000505929751
0.000505929132
0.000505929492
0.000505930663
0.000505932446
0.000505934615
0.000505936935
0.000505939165
0.000505941039
0.000505942326
0.000505942856
0.000505942569
0.000505941562
0.000505940089
0.000505938525
0.000505937294
0.000505936793
0.000505937325
0.000505939065
0.000505942053
0.000505946216
0.000505951393
0.00050595737
0.000505963897
0.000505970705
0.000505977526
0.000505984102
0.00050599021
0.0005059957
0.000506000522
0.000506004755
0.000506008607
0.000506012391
0.000506016466
0.000506021169
0.000506026735
0.00050603326
0.000506040681
0.000506048814
0.000506057405
0.000506066201
0.000506075004
0.00050608369
0.000506092215
0.000506100583
0.00050610882
0.000506116945
0.000506124962
0.000506132857
0.000506140606
0.000506148183
0.000506155566
0.000506162744
0.000506169706
0.000506176447
0.000506182968
0.000506189265
0.000506195335
0.000506201182
0.000506206801
0.000506212193
0.000506217357
0.00050622229
0.000506226988
0.000506231451
0.000506235678
0.000506239674
0.000506243437
0.000506246958
0.000506250242
0.000506253281
0.000506256055
0.000506258512
0.000506259612
0.000506255597
0.000506251018
0.000506245843
0.000506240046
0.000506233617
0.000506226554
0.000506218867
0.000506210571
0.000506201691
0.000506192266
0.000506182335
0.000506171953
0.000506161183
0.000506150092
0.000506138756
0.000506127258
0.000506115684
0.000506104118
0.000506092651
0.000506081365
0.000506070341
0.000506059651
0.000506049366
0.000506039539
0.000506030219
0.000506021445
0.000506013241
0.000506005625
0.000505998606
0.00050599218
0.000505986337
0.000505981064
0.000505976337
0.000505972132
0.000505968418
0.000505965168
0.000505962345
0.000505959919
0.000505957857
0.000505956127
0.000505954697
0.00050595354
0.000505952626
0.000505951929
0.000505951428
0.000505951097
0.000505950916
0.000505950868
0.000505950934
0.000505951099
0.000505951349
0.00050595167
0.000505952051
0.00050595248
0.00050595295
0.00050595345
0.000505953975
0.000505954517
0.00050595507
0.000505955628
0.000505956058
0.000505955875
0.000505955747
0.000505955691
0.000505955698
0.00050595576
0.000505955875
0.000505956034
0.000505956233
0.000505956468
0.000505956733
0.000505957024
0.000505957337
0.000505957671
0.00050595802
0.000505958384
0.000505958758
0.000505959142
0.000505959532
0.00050595993
0.000505960332
0.000505960735
0.000505961142
0.000505961549
0.000505961954
0.00050596236
0.000505962764
0.000505963164
0.000505963563
0.000505963958
0.000505964349
0.000505964735
0.000505965117
0.000505965495
0.000505965866
0.000505966233
0.000505966595
0.00050596695
0.000505967301
0.000505967648
0.00050596798
0.000505975999
0.000505949676
0.00050595556
0.000505952924
0.000505949403
0.000505945215
0.000505940792
0.000505936693
0.000505933454
0.000505931442
0.000505930808
0.000505931491
0.000505933286
0.000505934799
0.000505931254
0.000505928848
0.000505927662
0.000505927625
0.000505928572
0.000505930289
0.000505932531
0.000505935039
0.000505937536
0.00050593972
0.000505941285
0.000505941978
0.000505941667
0.000505940409
0.000505938448
0.000505936187
0.000505934106
0.000505932678
0.000505932291
0.000505933196
0.000505935491
0.000505939138
0.000505943989
0.000505949824
0.000505956373
0.00050596334
0.000505970413
0.000505977279
0.000505983658
0.000505989332
0.000505994197
0.000505998295
0.000506001829
0.000506005142
0.000506008656
0.000506012789
0.000506017864
0.000506024042
0.000506031297
0.000506039444
0.000506048197
0.000506057254
0.000506066366
0.000506075373
0.00050608421
0.000506092878
0.00050610141
0.000506109835
0.000506118164
0.000506126385
0.000506134473
0.000506142398
0.000506150134
0.000506157667
0.000506164985
0.000506172084
0.000506178963
0.00050618562
0.000506192052
0.000506198264
0.000506204252
0.000506210018
0.000506215565
0.000506220891
0.000506225996
0.000506230882
0.000506235547
0.00050623999
0.000506244209
0.000506248188
0.000506251918
0.00050625539
0.000506258592
0.000506261529
0.000506261526
0.000506257129
0.000506252121
0.000506246481
0.000506240185
0.000506233228
0.000506225611
0.000506217342
0.000506208435
0.000506198918
0.000506188828
0.000506178211
0.000506167125
0.000506155642
0.000506143835
0.000506131793
0.000506119607
0.000506107375
0.000506095195
0.000506083167
0.000506071384
0.000506059937
0.000506048906
0.000506038366
0.000506028375
0.00050601898
0.00050601022
0.000506002116
0.000505994679
0.000505987911
0.0005059818
0.000505976328
0.000505971472
0.000505967199
0.000505963475
0.000505960262
0.000505957523
0.000505955216
0.000505953303
0.000505951747
0.000505950509
0.000505949556
0.000505948856
0.000505948379
0.000505948095
0.000505947983
0.000505948017
0.000505948176
0.000505948445
0.000505948804
0.000505949239
0.000505949738
0.000505950287
0.000505950876
0.000505951494
0.000505952134
0.000505952783
0.000505953439
0.000505954094
0.000505954747
0.000505955396
0.000505955579
0.000505955368
0.000505955236
0.000505955178
0.000505955185
0.000505955251
0.00050595537
0.000505955535
0.000505955741
0.000505955983
0.000505956256
0.000505956556
0.000505956877
0.00050595722
0.000505957578
0.000505957951
0.000505958334
0.000505958727
0.000505959127
0.000505959533
0.000505959944
0.000505960356
0.000505960771
0.000505961187
0.000505961601
0.000505962016
0.000505962428
0.000505962836
0.000505963244
0.000505963646
0.000505964045
0.000505964439
0.000505964829
0.000505965214
0.000505965593
0.000505965968
0.000505966338
0.000505966701
0.00050596706
0.000505967416
0.000505967752
0.000505975774
0.000505949578
0.000505955164
0.000505952101
0.000505948031
0.000505943206
0.000505938136
0.000505933485
0.000505929886
0.000505927768
0.000505927295
0.000505928375
0.000505930728
0.000505933706
0.00050592991
0.000505927019
0.000505925531
0.00050592537
0.000505926351
0.000505928229
0.000505930721
0.000505933526
0.000505936322
0.000505938751
0.000505940449
0.000505941103
0.000505940528
0.000505938749
0.000505936025
0.000505932821
0.000505929712
0.000505927272
0.000505925979
0.000505926147
0.00050592791
0.000505931236
0.000505935962
0.000505941838
0.000505948555
0.000505955769
0.000505963117
0.000505970232
0.000505976776
0.000505982479
0.000505987197
0.000505990958
0.000505993987
0.00050599668
0.000505999542
0.000506003084
0.00050600771
0.000506013637
0.000506020856
0.000506029159
0.000506038214
0.000506047661
0.000506057197
0.000506066625
0.000506075865
0.000506084917
0.000506093824
0.000506102627
0.000506111344
0.000506119966
0.000506128466
0.00050613681
0.00050614497
0.000506152929
0.000506160674
0.000506168202
0.000506175512
0.000506182604
0.000506189477
0.000506196135
0.000506202578
0.00050620881
0.000506214835
0.000506220653
0.000506226267
0.000506231679
0.000506236889
0.000506241894
0.000506246693
0.000506251277
0.000506255641
0.00050625978
0.000506263668
0.000506267258
0.000506266365
0.000506261586
0.00050625617
0.000506250085
0.000506243309
0.000506235826
0.000506227631
0.000506218729
0.000506209134
0.000506198871
0.000506187983
0.000506176518
0.000506164541
0.000506152131
0.000506139375
0.000506126372
0.00050611323
0.000506100063
0.000506086985
0.000506074113
0.000506061555
0.000506049417
0.00050603779
0.000506026757
0.000506016382
0.000506006717
0.0005059978
0.000505989647
0.000505982264
0.000505975647
0.000505969774
0.000505964616
0.000505960139
0.0005059563
0.000505953053
0.00050595035
0.000505948145
0.000505946385
0.000505945026
0.000505944022
0.000505943331
0.000505942911
0.000505942729
0.00050594275
0.000505942942
0.000505943281
0.000505943742
0.000505944302
0.000505944944
0.000505945651
0.000505946407
0.000505947202
0.000505948022
0.000505948858
0.000505949702
0.00050595055
0.000505951395
0.000505952235
0.000505953066
0.000505953883
0.000505954601
0.000505954521
0.000505954362
0.00050595428
0.000505954271
0.000505954323
0.000505954431
0.00050595459
0.000505954792
0.000505955032
0.000505955307
0.000505955611
0.000505955939
0.000505956289
0.000505956658
0.000505957041
0.000505957438
0.000505957844
0.000505958259
0.000505958679
0.000505959106
0.000505959535
0.000505959965
0.000505960398
0.000505960829
0.000505961258
0.000505961687
0.000505962113
0.000505962535
0.000505962955
0.00050596337
0.00050596378
0.000505964185
0.000505964586
0.000505964982
0.000505965371
0.000505965757
0.000505966136
0.000505966509
0.000505966877
0.000505967244
0.000505967591
0.000505975636
0.000505949471
0.00050595471
0.000505951155
0.000505946474
0.000505940983
0.000505935288
0.000505930168
0.000505926344
0.000505924284
0.000505924133
0.000505925737
0.000505928731
0.000505932604
0.000505929151
0.000505925563
0.000505923544
0.000505923033
0.000505923843
0.000505925717
0.000505928349
0.000505931409
0.000505934529
0.000505937287
0.000505939241
0.00050594
0.000505939317
0.000505937186
0.000505933867
0.000505929856
0.000505925789
0.000505922324
0.00050592003
0.000505919303
0.000505920338
0.000505923135
0.000505927545
0.000505933308
0.000505940092
0.000505947519
0.000505955176
0.000505962638
0.000505969497
0.000505975416
0.000505980192
0.000505983819
0.000505986519
0.000505988727
0.000505991019
0.000505993996
0.000505998153
0.000506003778
0.000506010897
0.000506019297
0.00050602861
0.000506038419
0.000506048368
0.000506058219
0.000506067869
0.000506077316
0.000506086607
0.000506095792
0.000506104898
0.000506113916
0.000506122817
0.000506131564
0.000506140124
0.000506148479
0.000506156616
0.00050616453
0.000506172224
0.000506179697
0.000506186951
0.000506193993
0.000506200825
0.000506207451
0.000506213881
0.000506220115
0.00050622616
0.000506232021
0.000506237698
0.000506243191
0.000506248499
0.000506253614
0.000506258528
0.000506263225
0.000506267685
0.000506271894
0.000506270482
0.000506265387
0.000506259611
0.000506253118
0.000506245885
0.000506237893
0.000506229133
0.000506219608
0.000506209327
0.000506198316
0.000506186616
0.000506174281
0.00050616138
0.000506148004
0.00050613425
0.000506120234
0.00050610608
0.000506091922
0.000506077893
0.000506064131
0.000506050763
0.00050603791
0.000506025679
0.000506014164
0.000506003434
0.000505993544
0.000505984529
0.000505976403
0.000505969163
0.000505962794
0.000505957261
0.000505952525
0.000505948536
0.000505945237
0.000505942571
0.000505940476
0.000505938894
0.000505937765
0.000505937032
0.000505936646
0.000505936556
0.000505936717
0.000505937091
0.000505937639
0.00050593833
0.000505939138
0.000505940036
0.000505941002
0.000505942021
0.000505943075
0.000505944151
0.000505945239
0.000505946328
0.000505947411
0.000505948482
0.000505949536
0.000505950564
0.000505951566
0.000505952536
0.000505953473
0.000505953901
0.000505953681
0.00050595355
0.000505953498
0.000505953517
0.000505953599
0.000505953735
0.000505953922
0.000505954151
0.000505954416
0.000505954716
0.000505955043
0.000505955394
0.000505955765
0.000505956154
0.000505956556
0.000505956971
0.000505957394
0.000505957825
0.000505958261
0.000505958702
0.000505959145
0.000505959589
0.000505960034
0.000505960478
0.000505960919
0.000505961359
0.000505961796
0.000505962228
0.000505962658
0.000505963083
0.000505963502
0.000505963916
0.000505964326
0.00050596473
0.000505965128
0.000505965521
0.000505965908
0.000505966289
0.000505966666
0.00050596704
0.000505967391
0.000505975439
0.000505949361
0.000505954248
0.000505950195
0.000505944889
0.000505938697
0.000505932318
0.000505926642
0.00050592249
0.000505920384
0.000505920472
0.000505922556
0.000505926194
0.000505930803
0.000505928145
0.000505923902
0.0005059214
0.000505920591
0.000505921282
0.000505923191
0.000505925982
0.000505929286
0.000505932692
0.000505935729
0.000505937891
0.000505938714
0.000505937876
0.000505935318
0.000505931303
0.000505926378
0.000505921267
0.000505916729
0.000505913425
0.000505911827
0.000505912178
0.000505914504
0.000505918654
0.000505924351
0.000505931232
0.000505938878
0.000505946828
0.0005059546
0.000505961725
0.000505967802
0.000505972576
0.000505976011
0.000505978333
0.00050598002
0.000505981723
0.000505984134
0.000505987842
0.0005059932
0.000506000269
0.000506008826
0.000506018463
0.000506028708
0.000506039147
0.000506049497
0.000506059633
0.000506069545
0.000506079287
0.000506088919
0.000506098471
0.000506107939
0.000506117292
0.000506126488
0.000506135493
0.000506144284
0.000506152848
0.000506161183
0.000506169293
0.000506177179
0.000506184847
0.000506192306
0.00050619956
0.000506206619
0.000506213493
0.000506220189
0.000506226714
0.000506233077
0.000506239278
0.00050624532
0.000506251204
0.000506256923
0.000506262468
0.000506267826
0.000506272981
0.000506277904
0.000506276497
0.000506271133
0.00050626503
0.000506258153
0.000506250475
0.000506241971
0.000506232624
0.000506222431
0.000506211398
0.000506199548
0.000506186923
0.000506173578
0.000506159591
0.000506145063
0.000506130106
0.000506114856
0.000506099459
0.000506084073
0.000506068858
0.000506053976
0.000506039581
0.000506025814
0.000506012802
0.000506000649
0.000505989436
0.00050597922
0.000505970034
0.000505961885
0.000505954761
0.000505948632
0.000505943451
0.00050593916
0.000505935694
0.00050593298
0.000505930943
0.000505929508
0.000505928605
0.000505928161
0.000505928111
0.000505928396
0.000505928959
0.00050592975
0.000505930726
0.000505931847
0.000505933078
0.000505934394
0.000505935766
0.000505937173
0.0005059386
0.000505940031
0.000505941452
0.000505942855
0.000505944232
0.000505945575
0.000505946879
0.000505948144
0.000505949365
0.000505950544
0.00050595168
0.000505952622
0.000505952615
0.000505952467
0.000505952404
0.000505952416
0.000505952497
0.000505952635
0.000505952825
0.000505953061
0.000505953337
0.000505953646
0.000505953986
0.000505954352
0.000505954738
0.000505955143
0.000505955564
0.000505955995
0.000505956439
0.000505956889
0.000505957345
0.000505957804
0.000505958267
0.000505958731
0.000505959194
0.000505959658
0.000505960118
0.000505960576
0.000505961032
0.000505961483
0.000505961929
0.000505962372
0.000505962809
0.000505963241
0.000505963666
0.000505964087
0.000505964502
0.00050596491
0.000505965313
0.00050596571
0.0005059661
0.000505966485
0.000505966868
0.000505967229
0.000505975296
0.000505949246
0.000505953767
0.000505949193
0.000505943232
0.000505936315
0.00050592924
0.000505923014
0.000505918561
0.000505916448
0.000505916815
0.000505919407
0.000505923692
0.00050592898
0.000505927182
0.000505922226
0.000505919184
0.000505918023
0.000505918548
0.000505920463
0.000505923408
0.00050592698
0.000505930718
0.000505934078
0.000505936473
0.000505937355
0.000505936346
0.000505933373
0.000505928692
0.000505922883
0.000505916738
0.000505911104
0.000505906737
0.000505904191
0.00050590377
0.000505905537
0.000505909351
0.000505914926
0.000505921874
0.000505929737
0.000505938004
0.000505946128
0.00050595357
0.00050595986
0.000505964687
0.000505967984
0.00050596998
0.000505971191
0.00050597234
0.000505974214
0.000505977491
0.000505982598
0.000505989629
0.00050599836
0.000506008342
0.000506019048
0.000506030004
0.000506040886
0.00050605154
0.000506061951
0.000506072175
0.000506082282
0.000506092306
0.000506102246
0.000506112065
0.00050612172
0.000506131171
0.000506140395
0.000506149378
0.000506158119
0.000506166624
0.000506174898
0.00050618295
0.000506190792
0.000506198433
0.000506205885
0.000506213163
0.000506220278
0.00050622724
0.00050623406
0.000506240745
0.000506247298
0.000506253722
0.000506260012
0.000506266163
0.000506272162
0.000506277993
0.000506283628
0.00050628277
0.000506277165
0.000506270776
0.000506263559
0.000506255476
0.000506246492
0.000506236581
0.000506225731
0.00050621394
0.000506201225
0.000506187626
0.000506173201
0.000506158033
0.000506142236
0.000506125939
0.0005061093
0.000506092492
0.000506075705
0.00050605913
0.000506042965
0.000506027392
0.000506012583
0.000505998686
0.000505985824
0.000505974086
0.000505963532
0.000505954193
0.000505946066
0.000505939126
0.000505933325
0.000505928597
0.000505924863
0.000505922037
0.000505920025
0.000505918736
0.000505918076
0.000505917959
0.000505918301
0.000505919025
0.000505920064
0.000505921354
0.000505922838
0.000505924473
0.000505926213
0.000505928024
0.000505929878
0.000505931749
0.000505933616
0.000505935465
0.000505937281
0.000505939054
0.000505940778
0.000505942447
0.000505944056
0.000505945604
0.000505947089
0.000505948508
0.000505949863
0.000505951153
0.000505951594
0.000505951416
0.000505951333
0.000505951331
0.000505951402
0.000505951538
0.000505951729
0.000505951969
0.000505952252
0.000505952572
0.000505952923
0.000505953303
0.000505953704
0.000505954125
0.000505954561
0.000505955011
0.00050595547
0.000505955939
0.000505956413
0.000505956892
0.000505957372
0.000505957855
0.000505958337
0.000505958817
0.000505959297
0.000505959774
0.000505960246
0.000505960716
0.00050596118
0.000505961638
0.000505962093
0.000505962541
0.000505962983
0.000505963418
0.000505963849
0.000505964272
0.000505964688
0.0005059651
0.000505965505
0.000505965903
0.000505966295
0.000505966686
0.000505967051
0.000505975123
0.000505949125
0.000505953263
0.000505948144
0.000505941504
0.000505933831
0.000505926024
0.000505919213
0.000505914421
0.000505912268
0.000505912888
0.000505915974
0.000505920914
0.00050592693
0.000505926209
0.000505920526
0.000505916928
0.000505915404
0.000505915756
0.000505917669
0.000505920752
0.000505924562
0.00050592859
0.00050593224
0.000505934854
0.000505935216
0.000505934367
0.000505931236
0.000505925834
0.000505919077
0.000505911835
0.000505905056
0.00050589959
0.000505896073
0.000505894866
0.000505896062
0.000505899531
0.000505904972
0.000505911974
0.000505920037
0.000505928601
0.000505937061
0.000505944812
0.000505951316
0.000505956203
0.00050595937
0.000505961045
0.000505961783
0.000505962383
0.000505963725
0.000505966584
0.000505971461
0.000505978487
0.000505987433
0.000505997815
0.000506009044
0.000506020589
0.000506032075
0.000506043321
0.000506054301
0.000506065075
0.000506075716
0.000506086267
0.000506096724
0.000506107051
0.000506117198
0.000506127122
0.000506136798
0.000506146213
0.000506155368
0.000506164271
0.000506172933
0.000506181367
0.000506189589
0.000506197613
0.000506205458
0.000506213142
0.000506220682
0.000506228092
0.000506235387
0.000506242577
0.000506249668
0.000506256666
0.000506263569
0.000506270372
0.000506277066
0.000506283637
0.000506290061
0.000506290465
0.000506284689
0.000506278073
0.000506270564
0.000506262112
0.000506252669
0.000506242197
0.000506230671
0.000506218079
0.000506204428
0.000506189753
0.000506174113
0.000506157597
0.000506140331
0.000506122466
0.000506104186
0.0005060857
0.000506067236
0.000506049028
0.000506031317
0.000506014325
0.000505998261
0.0005059833
0.000505969589
0.000505957228
0.000505946279
0.000505936768
0.000505928679
0.000505921966
0.000505916561
0.000505912371
0.00050590929
0.000505907208
0.000505906007
0.000505905571
0.000505905789
0.000505906557
0.000505907775
0.000505909356
0.000505911224
0.000505913306
0.000505915544
0.000505917887
0.000505920291
0.00050592272
0.000505925146
0.000505927545
0.000505929896
0.000505932188
0.000505934409
0.000505936549
0.000505938605
0.000505940573
0.000505942449
0.000505944235
0.000505945932
0.000505947541
0.000505949066
0.000505950055
0.000505950007
0.00050594993
0.000505949943
0.000505950031
0.000505950185
0.000505950399
0.000505950663
0.000505950969
0.000505951316
0.000505951694
0.000505952098
0.000505952528
0.000505952976
0.00050595344
0.000505953916
0.000505954404
0.000505954898
0.000505955399
0.000505955903
0.000505956409
0.000505956916
0.000505957423
0.000505957928
0.000505958429
0.000505958929
0.000505959424
0.000505959913
0.000505960399
0.000505960878
0.000505961351
0.000505961819
0.000505962279
0.000505962734
0.00050596318
0.000505963622
0.000505964056
0.000505964482
0.000505964904
0.000505965317
0.000505965724
0.000505966125
0.000505966524
0.000505966896
0.000505974984
0.000505948997
0.000505952732
0.000505947045
0.000505939695
0.000505931238
0.000505922676
0.000505915262
0.000505910124
0.000505907931
0.00050590881
0.000505912398
0.000505917996
0.000505924722
0.000505925221
0.000505918785
0.000505914609
0.000505912701
0.000505912864
0.000505914767
0.000505917993
0.000505922064
0.000505926417
0.000505930383
0.000505933219
0.000505931989
0.000505931238
0.000505928996
0.000505922862
0.00050591514
0.000505906775
0.00050589881
0.000505892193
0.000505887645
0.000505885592
0.000505886163
0.000505889241
0.000505894518
0.000505901555
0.000505909815
0.000505918683
0.00050592749
0.000505935556
0.000505942275
0.000505947221
0.000505950259
0.000505951618
0.000505951896
0.000505951964
0.000505952799
0.00050595527
0.000505959951
0.000505967013
0.000505976223
0.000505987057
0.000505998867
0.00050601106
0.000506023212
0.00050603511
0.000506046719
0.000506058097
0.000506069325
0.000506080448
0.000506091463
0.000506102329
0.000506112993
0.000506123406
0.000506133542
0.000506143388
0.000506152948
0.000506162237
0.000506171267
0.000506180058
0.000506188633
0.000506197012
0.000506205217
0.000506213276
0.000506221208
0.000506229034
0.000506236774
0.00050624444
0.000506252045
0.000506259597
0.000506267097
0.000506274545
0.000506281933
0.000506289252
0.000506296476
0.000506298925
0.000506293036
0.000506286258
0.000506278523
0.000506269766
0.000506259921
0.000506248931
0.000506236754
0.00050622336
0.000506208742
0.000506192926
0.000506175965
0.000506157955
0.000506139034
0.000506119376
0.000506099199
0.000506078753
0.000506058319
0.000506038184
0.000506018644
0.000505999977
0.000505982438
0.00050596624
0.000505951554
0.000505938497
0.000505927131
0.000505917472
0.000505909485
0.0005059031
0.000505898216
0.000505894707
0.000505892436
0.000505891259
0.000505891027
0.0005058916
0.000505892841
0.000505894628
0.000505896847
0.000505899395
0.000505902189
0.000505905149
0.000505908211
0.000505911324
0.000505914443
0.00050591753
0.000505920561
0.000505923511
0.000505926365
0.000505929112
0.000505931744
0.000505934254
0.000505936645
0.000505938914
0.000505941062
0.000505943092
0.00050594501
0.000505946817
0.000505948229
0.000505948485
0.000505948421
0.000505948447
0.000505948556
0.000505948735
0.000505948974
0.000505949268
0.000505949606
0.000505949982
0.000505950392
0.00050595083
0.000505951289
0.00050595177
0.000505952265
0.000505952773
0.000505953289
0.000505953815
0.000505954343
0.000505954876
0.00050595541
0.000505955944
0.000505956476
0.000505957007
0.000505957534
0.000505958056
0.000505958575
0.000505959088
0.000505959594
0.000505960095
0.000505960589
0.000505961075
0.000505961556
0.000505962029
0.000505962494
0.000505962951
0.000505963402
0.000505963845
0.000505964281
0.00050596471
0.000505965132
0.000505965546
0.000505965954
0.00050596636
0.000505966737
0.000505974831
0.000505948861
0.000505952173
0.00050594589
0.000505937803
0.000505928532
0.000505919188
0.000505911149
0.000505905646
0.0005059034
0.00050590453
0.000505908615
0.00050591487
0.000505922316
0.000505924247
0.000505917039
0.000505912268
0.000505909963
0.00050590993
0.000505911821
0.000505915187
0.000505919508
0.000505924167
0.00050592843
0.000505930887
0.000505927985
0.000505926969
0.000505926604
0.000505919697
0.000505910962
0.000505901424
0.000505892223
0.000505884409
0.000505878786
0.000505875845
0.000505875752
0.000505878402
0.000505883481
0.000505890522
0.00050589895
0.000505908097
0.000505917233
0.00050592561
0.000505932549
0.000505937566
0.000505940488
0.000505941545
0.000505941373
0.000505940921
0.000505941261
0.000505943362
0.000505947876
0.000505955013
0.000505964538
0.000505975888
0.000505988353
0.000506001276
0.000506014179
0.000506026817
0.000506039136
0.000506051196
0.00050606308
0.000506074836
0.000506086459
0.000506097906
0.000506109117
0.000506120039
0.000506130644
0.000506140922
0.00050615088
0.000506160536
0.000506169913
0.000506179036
0.000506187935
0.000506196639
0.000506205179
0.000506213588
0.000506221892
0.00050623012
0.000506238295
0.000506246437
0.000506254559
0.000506262675
0.00050627079
0.000506278907
0.000506287022
0.000506295129
0.00050630321
0.000506308653
0.000506302747
0.0005062959
0.000506288027
0.000506279043
0.000506268862
0.000506257403
0.0005062446
0.000506230397
0.000506214768
0.000506197722
0.000506179304
0.000506159609
0.000506138788
0.000506117043
0.000506094632
0.000506071859
0.000506049068
0.00050602662
0.000506004883
0.000505984206
0.000505964905
0.000505947243
0.000505931425
0.00050591758
0.000505905771
0.000505895997
0.000505888197
0.000505882263
0.000505878054
0.0005058754
0.000505874121
0.000505874033
0.000505874952
0.000505876704
0.000505879127
0.000505882079
0.000505885425
0.000505889053
0.00050589287
0.000505896789
0.000505900746
0.000505904686
0.000505908564
0.000505912347
0.000505916011
0.000505919536
0.00050592291
0.000505926126
0.000505929179
0.000505932067
0.000505934794
0.000505937361
0.000505939774
0.000505942037
0.000505944159
0.000505945993
0.000505946565
0.000505946541
0.000505946615
0.000505946772
0.000505947001
0.000505947292
0.000505947634
0.000505948023
0.000505948449
0.000505948907
0.000505949392
0.000505949899
0.000505950422
0.000505950962
0.000505951511
0.000505952069
0.000505952632
0.000505953199
0.000505953767
0.000505954337
0.000505954904
0.000505955469
0.000505956029
0.000505956586
0.000505957137
0.000505957682
0.000505958222
0.000505958754
0.000505959278
0.000505959796
0.000505960305
0.000505960806
0.0005059613
0.000505961785
0.000505962263
0.000505962731
0.000505963193
0.000505963647
0.000505964091
0.00050596453
0.00050596496
0.000505965383
0.000505965798
0.000505966211
0.000505966595
0.000505974702
0.000505948717
0.000505951583
0.000505944677
0.000505935822
0.000505925708
0.000505915555
0.000505906871
0.000505900989
0.000505898683
0.000505900059
0.000505904641
0.000505911555
0.000505919721
0.000505923291
0.000505915292
0.000505909907
0.000505907192
0.000505906953
0.000505908826
0.000505912333
0.000505916912
0.000505921891
0.000505926462
0.000505927293
0.000505923463
0.00050592216
0.000505923505
0.000505916419
0.000505906628
0.000505895868
0.000505885376
0.000505876303
0.000505869544
0.000505865654
0.000505864842
0.000505867017
0.000505871858
0.000505878876
0.000505887453
0.000505896868
0.000505906323
0.000505914997
0.000505922141
0.000505927213
0.000505930006
0.000505930754
0.000505930136
0.000505929175
0.000505929043
0.000505930807
0.000505935196
0.000505942462
0.000505952368
0.000505964309
0.000505977515
0.000505991257