/*--------------------------------*- C++ -*----------------------------------*\
| =========                 |                                                 |
| \\      /  F ield         | OpenFOAM: The Open Source CFD Toolbox           |
|  \\    /   O peration     | Version:  v2012                                 |
|   \\  /    A nd           | Website:  www.openfoam.com                      |
|    \\/     M anipulation  |                                                 |
\*---------------------------------------------------------------------------*/
FoamFile
{
    version     2.0;
    format      ascii;
    class       volVectorField;
    location    "2.94";
    object      U;
}
// * * * * * * * * * * * * * * * * * * * * * * * * * * * * * * * * * * * * * //

dimensions      [0 1 -1 0 0 0 0];


internalField   nonuniform List<vector> 
28416
(
(0.100000631 -6.46148884e-06 0)
(0.10000739 -2.31615509e-05 0)
(0.100023274 -4.56633214e-05 0)
(0.100050492 -7.27618634e-05 0)
(0.100089721 -0.000100698844 0)
(0.10014011 -0.000124087166 0)
(0.100199096 -0.000137259274 0)
(0.1002624 -0.000136159607 0)
(0.100324633 -0.000119655333 0)
(0.100380337 -8.9510318e-05 0)
(0.100424774 -4.93986149e-05 0)
(0.100454014 -3.52247583e-06 0)
(0.100469215 4.51108447e-05 0)
(0.100474069 9.08518909e-05 0)
(0.100469122 0.000128206078 0)
(0.100455254 0.000154582682 0)
(0.100434903 0.000168985616 0)
(0.100410696 0.000171610174 0)
(0.100385072 0.000163680385 0)
(0.100360243 0.000147108556 0)
(0.100338026 0.000124351269 0)
(0.100319579 9.85315952e-05 0)
(0.100305372 7.36596876e-05 0)
(0.100295214 5.44291847e-05 0)
(0.100287857 4.53373814e-05 0)
(0.100280529 4.96985235e-05 0)
(0.100269022 6.90281358e-05 0)
(0.100248633 0.000102762972 0)
(0.100215292 0.000148218399 0)
(0.100166195 0.000201032396 0)
(0.100100039 0.000256039604 0)
(0.100017028 0.000308199621 0)
(0.0999186575 0.000353300462 0)
(0.0998073226 0.000388359085 0)
(0.0996858951 0.000411757157 0)
(0.0995573696 0.000423197136 0)
(0.0994246183 0.000423568713 0)
(0.0992902278 0.000414791367 0)
(0.0991563674 0.00039965977 0)
(0.0990246322 0.000381676978 0)
(0.098895838 0.000364828268 0)
(0.0987698062 0.00035324137 0)
(0.0986452297 0.000350707173 0)
(0.0985197371 0.00036009433 0)
(0.098390225 0.000382763132 0)
(0.0982534281 0.000418141827 0)
(0.0981065913 0.000463640952 0)
(0.0979480567 0.000515020755 0)
(0.0977775996 0.000567192156 0)
(0.0975964322 0.000615268076 0)
(0.0974068891 0.000655565272 0)
(0.0972119042 0.000686250701 0)
(0.0970144328 0.000707444877 0)
(0.0968169763 0.00072079115 0)
(0.096621318 0.000728688095 0)
(0.0964285 0.000733479947 0)
(0.0962389924 0.000736871001 0)
(0.096052956 0.00073970043 0)
(0.095870489 0.000742054081 0)
(0.095691786 0.000743573076 0)
(0.095517185 0.000743786432 0)
(0.0953471311 0.000742340289 0)
(0.0951821012 0.000739079702 0)
(0.0950225364 0.000734013065 0)
(0.0948688033 0.000727224535 0)
(0.0947211873 0.000718794003 0)
(0.0945799055 0.00070875487 0)
(0.0944451261 0.000697089725 0)
(0.094316984 0.000683747191 0)
(0.0941955907 0.000668661971 0)
(0.0940810393 0.000651767895 0)
(0.0939734084 0.000633002524 0)
(0.0938727678 0.000612306798 0)
(0.0937791849 0.000589623927 0)
(0.0936927346 0.00056489977 0)
(0.0936135119 0.000538084828 0)
(0.0935416501 0.000509134934 0)
(0.0934773707 0.000478007974 0)
(0.0934209818 0.000444627154 0)
(0.0933726797 0.000408866228 0)
(0.0933325999 0.000370644187 0)
(0.0933009829 0.00032982282 0)
(0.093278028 0.000286203049 0)
(0.0932638118 0.000239585286 0)
(0.0932582707 0.000189803493 0)
(0.0932611978 0.000136908718 0)
(0.0932722842 8.12218389e-05 0)
(0.0932897354 2.36785559e-05 0)
(0.0933149298 -3.22439484e-05 0)
(0.0933529314 -8.73809814e-05 0)
(0.0934050129 -0.000143528507 0)
(0.0934698622 -0.000200979855 0)
(0.093547182 -0.000259472481 0)
(0.0936373417 -0.00031882081 0)
(0.0937404164 -0.000378770746 0)
(0.0938562641 -0.00043891584 0)
(0.0939847301 -0.000498767017 0)
(0.0941255958 -0.000557794357 0)
(0.094278508 -0.000615429868 0)
(0.0944429716 -0.000671072067 0)
(0.0946183524 -0.000724097996 0)
(0.0948038731 -0.000773878213 0)
(0.0949986148 -0.000819795224 0)
(0.0952015272 -0.0008612651 0)
(0.0954114409 -0.000897759765 0)
(0.0956270835 -0.000928827338 0)
(0.0958470999 -0.000954108751 0)
(0.0960700751 -0.000973349652 0)
(0.0962945611 -0.000986407299 0)
(0.0965191055 -0.000993252726 0)
(0.0967422809 -0.000993968645 0)
(0.0969627139 -0.000988743623 0)
(0.0971791109 -0.000977863013 0)
(0.0973902814 -0.000961697121 0)
(0.0975951565 -0.000940687194 0)
(0.0977928016 -0.000915329884 0)
(0.0979824253 -0.000886160949 0)
(0.0981633829 -0.000853739017 0)
(0.0983351751 -0.00081863011 0)
(0.0984974437 -0.000781393537 0)
(0.0986499637 -0.000742569624 0)
(0.0987926329 -0.000702669545 0)
(0.09892546 -0.00066216731 0)
(0.0990485518 -0.000621493895 0)
(0.0991620997 -0.000581033397 0)
(0.0992663664 -0.000541121051 0)
(0.0993616727 -0.000502042912 0)
(0.0994483858 -0.000464036939 0)
(0.0995269076 -0.000427295012 0)
(0.0995976647 -0.000391965522 0)
(0.0996611 -0.000358156628 0)
(0.0997176662 -0.000325940336 0)
(0.0997678187 -0.000295357102 0)
(0.0998120104 -0.000266420175 0)
(0.0998506865 -0.000239119331 0)
(0.099884283 -0.000213424727 0)
(0.0999132249 -0.000189291661 0)
(0.0999379244 -0.00016666543 0)
(0.0999587781 -0.000145485218 0)
(0.0999761662 -0.000125687865 0)
(0.0999904523 -0.000107212963 0)
(0.100001982 -9.00090272e-05 0)
(0.100011075 -7.40395865e-05 0)
(0.10001802 -5.92867314e-05 0)
(0.100023058 -4.57469241e-05 0)
(0.100026367 -3.34136035e-05 0)
(0.100028074 -2.22529345e-05 0)
(0.100028257 -1.21912819e-05 0)
(0.100026916 -3.0789726e-06 0)
(0.100024438 5.34850372e-06 0)
(0.100021261 1.29404358e-05 0)
(0.100017325 1.96565689e-05 0)
(0.100012582 2.55839297e-05 0)
(0.100007122 3.08026846e-05 0)
(0.10000103 3.53831027e-05 0)
(0.0999943791 3.93946027e-05 0)
(0.099987249 4.28994743e-05 0)
(0.0999797166 4.5951024e-05 0)
(0.099971852 4.8594609e-05 0)
(0.0999637178 5.08690142e-05 0)
(0.0999553694 5.28077903e-05 0)
(0.099946856 5.44401903e-05 0)
(0.0999382202 5.57920268e-05 0)
(0.0999294992 5.68864883e-05 0)
(0.099920725 5.77448344e-05 0)
(0.0999119248 5.83868957e-05 0)
(0.0999031226 5.88313606e-05 0)
(0.0998943389 5.90958935e-05 0)
(0.0998855915 5.91971526e-05 0)
(0.0998768962 5.91507621e-05 0)
(0.099868267 5.8971273e-05 0)
(0.0998597162 5.86721219e-05 0)
(0.0998512549 5.8265593e-05 0)
(0.0998428927 5.77627904e-05 0)
(0.0998346383 5.71736298e-05 0)
(0.0998264991 5.65068644e-05 0)
(0.0998184817 5.57701542e-05 0)
(0.0998105912 5.49701869e-05 0)
(0.0998028323 5.41128503e-05 0)
(0.0997952085 5.32034349e-05 0)
(0.0997877236 5.22466234e-05 0)
(0.099780381 5.1246419e-05 0)
(0.0997731848 5.02062656e-05 0)
(0.0997661347 4.91288241e-05 0)
(0.0997592465 4.80171641e-05 0)
(0.0997524835 4.6868604e-05 0)
(0.0997459973 4.56996181e-05 0)
(0.0997393154 4.44320034e-05 0)
(0.0997342086 4.33694056e-05 0)
(0.0997251822 4.11326608e-05 0)
(0.100000227 -1.20525321e-05 0)
(0.100004614 -4.39005645e-05 0)
(0.100017443 -8.61597793e-05 0)
(0.100042369 -0.000136591384 0)
(0.100081147 -0.000188844957 0)
(0.100133541 -0.000233635909 0)
(0.100197144 -0.000261054293 0)
(0.100267325 -0.000263874512 0)
(0.100337889 -0.000239801052 0)
(0.100402311 -0.000191538283 0)
(0.100455042 -0.000125356363 0)
(0.100492882 -4.91106684e-05 0)
(0.100514204 2.96777646e-05 0)
(0.100518327 0.000102245791 0)
(0.100507544 0.0001621215 0)
(0.100485868 0.000205418672 0)
(0.100456862 0.000230488754 0)
(0.100423966 0.000237631716 0)
(0.100390441 0.000228601271 0)
(0.10035918 0.000206105723 0)
(0.100332627 0.000173674194 0)
(0.100312615 0.000135924073 0)
(0.100300169 9.89484723e-05 0)
(0.100294994 7.00184277e-05 0)
(0.100295 5.64898236e-05 0)
(0.100296484 6.42531563e-05 0)
(0.100294611 9.62925319e-05 0)
(0.100283988 0.000151867544 0)
(0.100259484 0.000226552009 0)
(0.10021715 0.000313153176 0)
(0.10015485 0.00040322704 0)
(0.100072442 0.000488655694 0)
(0.0999715658 0.000562837303 0)
(0.0998551834 0.00062130465 0)
(0.0997270158 0.000661820378 0)
(0.0995910329 0.000684134407 0)
(0.0994510648 0.000689627145 0)
(0.0993105377 0.000681011816 0)
(0.0991722795 0.000662163048 0)
(0.0990383294 0.00063801886 0)
(0.0989097202 0.000614410597 0)
(0.0987862595 0.000597650681 0)
(0.0986663935 0.000593778941 0)
(0.0985472595 0.000607523284 0)
(0.0984250045 0.000641210095 0)
(0.0982953804 0.000693978559 0)
(0.0981545271 0.000761639247 0)
(0.0979997666 0.000837349388 0)
(0.0978301873 0.000913005917 0)
(0.0976468357 0.000980990621 0)
(0.0974524466 0.00103575495 0)
(0.097250793 0.00107477277 0)
(0.0970458584 0.00109860757 0)
(0.0968410846 0.00111015141 0)
(0.0966388974 0.00111337031 0)
(0.0964406019 0.00111202357 0)
(0.0962465997 0.00110876637 0)
(0.0960567834 0.00110483704 0)
(0.0958709338 0.0011002789 0)
(0.0956889913 0.00109446377 0)
(0.0955111524 0.00108663682 0)
(0.0953378227 0.00107628009 0)
(0.0951695003 0.00106322968 0)
(0.0950066615 0.00104760194 0)
(0.0948496922 0.00102963921 0)
(0.094698872 0.00100957305 0)
(0.0945543932 0.000987553123 0)
(0.0944163909 0.000963639824 0)
(0.0942849683 0.000937831778 0)
(0.0941602112 0.000910097803 0)
(0.0940421936 0.000880396711 0)
(0.093930981 0.000848682874 0)
(0.0938266348 0.000814903695 0)
(0.0937292191 0.000778995971 0)
(0.0936388101 0.000740884665 0)
(0.0935555067 0.000700483774 0)
(0.0934794403 0.000657694943 0)
(0.0934107828 0.000612400142 0)
(0.0933497313 0.000564418859 0)
(0.0932964614 0.000513498107 0)
(0.0932510791 0.000459427997 0)
(0.0932136742 0.000401982263 0)
(0.093184364 0.000340914877 0)
(0.0931632553 0.000276088303 0)
(0.0931505671 0.000207535846 0)
(0.0931466433 0.000135498065 0)
(0.0931521831 6.0417576e-05 0)
(0.0931691104 -1.74371049e-05 0)
(0.093196927 -9.64290754e-05 0)
(0.0932347262 -0.000176085476 0)
(0.0932844511 -0.000257356013 0)
(0.0933471197 -0.000340404371 0)
(0.0934228913 -0.000424815419 0)
(0.0935120242 -0.000510217943 0)
(0.0936147702 -0.000596207725 0)
(0.0937312128 -0.000682219245 0)
(0.0938613177 -0.000767567596 0)
(0.094004944 -0.00085149062 0)
(0.0941618053 -0.000933157175 0)
(0.0943314496 -0.00101168216 0)
(0.094513254 -0.00108615238 0)
(0.0947064196 -0.00115565376 0)
(0.0949099712 -0.00121929908 0)
(0.0951227648 -0.00127625705 0)
(0.0953435008 -0.00132578133 0)
(0.0955707437 -0.00136723743 0)
(0.0958029471 -0.00140012599 0)
(0.0960384853 -0.00142410119 0)
(0.0962756879 -0.00143898297 0)
(0.0965128773 -0.00144476229 0)
(0.0967484078 -0.00144159928 0)
(0.0969807014 -0.00142981454 0)
(0.0972082816 -0.0014098743 0)
(0.0974298015 -0.00138237057 0)
(0.0976440658 -0.00134799786 0)
(0.0978500461 -0.00130752773 0)
(0.0980468902 -0.00126178279 0)
(0.098233924 -0.00121161136 0)
(0.0984106483 -0.00115786401 0)
(0.0985767311 -0.00110137266 0)
(0.0987319958 -0.00104293281 0)
(0.0988764067 -0.000983289363 0)
(0.0990100528 -0.000923125836 0)
(0.0991331308 -0.000863056992 0)
(0.0992459275 -0.000803624599 0)
(0.0993488037 -0.000745295889 0)
(0.0994421777 -0.000688464264 0)
(0.0995265113 -0.000633451888 0)
(0.099602297 -0.000580513664 0)
(0.0996700465 -0.000529842236 0)
(0.0997302808 -0.000481573799 0)
(0.0997835219 -0.000435794346 0)
(0.0998302864 -0.000392546058 0)
(0.0998710803 -0.000351833743 0)
(0.0999063949 -0.000313631099 0)
(0.0999367032 -0.000277886701 0)
(0.0999624568 -0.000244530027 0)
(0.0999840852 -0.000213477711 0)
(0.100001994 -0.000184639391 0)
(0.100016563 -0.000157922456 0)
(0.100028144 -0.000133235916 0)
(0.100037054 -0.000110492799 0)
(0.100043578 -8.96087668e-05 0)
(0.100047968 -7.04977949e-05 0)
(0.100050451 -5.30696389e-05 0)
(0.100051244 -3.72287797e-05 0)
(0.100050544 -2.287014e-05 0)
(0.100048559 -9.88013922e-06 0)
(0.100045505 1.86665081e-06 0)
(0.100041426 1.25972032e-05 0)
(0.100036417 2.22649735e-05 0)
(0.100030692 3.0844759e-05 0)
(0.100024342 3.84248504e-05 0)
(0.100017439 4.50930769e-05 0)
(0.100010055 5.09287288e-05 0)
(0.100002255 5.60129562e-05 0)
(0.0999941005 6.04214933e-05 0)
(0.0999856502 6.42217008e-05 0)
(0.0999769582 6.74734593e-05 0)
(0.0999680746 7.0230044e-05 0)
(0.0999590454 7.25389805e-05 0)
(0.0999499117 7.44428048e-05 0)
(0.0999407096 7.59797296e-05 0)
(0.0999314712 7.71842246e-05 0)
(0.099922224 7.80875277e-05 0)
(0.0999129923 7.87180764e-05 0)
(0.0999037967 7.91018514e-05 0)
(0.0998946554 7.9262644e-05 0)
(0.0998855839 7.92222647e-05 0)
(0.0998765956 7.9000706e-05 0)
(0.0998677022 7.86162712e-05 0)
(0.0998589137 7.80856749e-05 0)
(0.0998502387 7.74241257e-05 0)
(0.0998416845 7.66453975e-05 0)
(0.0998332576 7.57619009e-05 0)
(0.0998249632 7.47847617e-05 0)
(0.0998168059 7.3723914e-05 0)
(0.0998087894 7.25882157e-05 0)
(0.0998009166 7.13855849e-05 0)
(0.0997931903 7.01231353e-05 0)
(0.0997856126 6.88070542e-05 0)
(0.0997781854 6.74424201e-05 0)
(0.0997709112 6.60332981e-05 0)
(0.0997637882 6.45822945e-05 0)
(0.0997568306 6.30923511e-05 0)
(0.0997499961 6.15578216e-05 0)
(0.0997434386 6.00002879e-05 0)
(0.0997366403 5.83138417e-05 0)
(0.0997314497 5.69081128e-05 0)
(0.0997219483 5.40290384e-05 0)
(0.100000439 -1.3328212e-05 0)
(0.10000603 -5.00160732e-05 0)
(0.100020344 -9.89793771e-05 0)
(0.10004646 -0.000157681414 0)
(0.100085834 -0.000219258304 0)
(0.100138129 -0.000273200401 0)
(0.100201005 -0.000307902234 0)
(0.100270075 -0.000314652702 0)
(0.100339512 -0.000290363388 0)
(0.100403164 -0.000237751139 0)
(0.100455675 -0.000163837876 0)
(0.100493144 -7.80306549e-05 0)
(0.100514219 9.350634e-06 0)
(0.10052042 8.94836866e-05 0)
(0.100513555 0.000156088126 0)
(0.100495546 0.000204810888 0)
(0.100469639 0.000233716254 0)
(0.100439339 0.000243059181 0)
(0.100407914 0.000234636926 0)
(0.100378283 0.000211283516 0)
(0.100352906 0.000176753194 0)
(0.100333615 0.000136020807 0)
(0.100321366 9.56444528e-05 0)
(0.1003159 6.3502956e-05 0)
(0.100315429 4.78665272e-05 0)
(0.100316492 5.57742641e-05 0)
(0.100314243 9.12222707e-05 0)
(0.100303325 0.0001539043 0)
(0.100278843 0.000239118337 0)
(0.100237099 0.000338816367 0)
(0.100176039 0.000443324179 0)
(0.100095406 0.000543156091 0)
(0.0999965928 0.000630445636 0)
(0.0998822583 0.000699748113 0)
(0.0997558488 0.000748227787 0)
(0.0996211345 0.00077541737 0)
(0.0994818348 0.000782802211 0)
(0.0993413406 0.000773445995 0)
(0.099202501 0.000751763024 0)
(0.0990674186 0.000723396043 0)
(0.0989372219 0.000695037145 0)
(0.0988118335 0.00067398948 0)
(0.0986898206 0.000667338918 0)
(0.0985684396 0.000680774779 0)
(0.0984439586 0.000717307003 0)
(0.0983122522 0.000776279247 0)
(0.0981695643 0.000853087431 0)
(0.0980132603 0.000939848409 0)
(0.0978423746 0.00102696361 0)
(0.0976578015 0.00110519382 0)
(0.0974620706 0.00116764064 0)
(0.0972587668 0.00121102625 0)
(0.0970517645 0.00123589779 0)
(0.0968445016 0.00124576816 0)
(0.0966394943 0.00124557978 0)
(0.0964381932 0.00124007973 0)
(0.0962411534 0.00123264748 0)
(0.0960483917 0.00122486047 0)
(0.0958597659 0.00121675489 0)
(0.0956752464 0.00120749178 0)
(0.0954950263 0.00119606516 0)
(0.0953194917 0.0011817821 0)
(0.0951491186 0.00116442204 0)
(0.0949843657 0.00114414287 0)
(0.0948256061 0.00112127728 0)
(0.0946731089 0.00109614972 0)
(0.0945270544 0.00106897973 0)
(0.0943875626 0.00103987037 0)
(0.0942547186 0.00100884396 0)
(0.0941285879 0.000975884335 0)
(0.0940092236 0.000940962868 0)
(0.0938966708 0.000904045016 0)
(0.0937909714 0.00086508559 0)
(0.0936921706 0.000824022102 0)
(0.0936003254 0.00078077123 0)
(0.0935155125 0.000735228565 0)
(0.0934378347 0.000687269052 0)
(0.0933674245 0.000636746123 0)
(0.0933044395 0.000583488814 0)
(0.0932490478 0.00052731232 0)
(0.0932014226 0.000468051731 0)
(0.0931617697 0.000405613295 0)
(0.0931303966 0.000339966685 0)
(0.0931077068 0.000271162238 0)
(0.0930940767 0.000199340374 0)
(0.0930897809 0.000124589536 0)
(0.0930945316 4.6968823e-05 0)
(0.0931078083 -3.33137119e-05 0)
(0.0931311389 -0.000116929733 0)
(0.0931665666 -0.000202985231 0)
(0.0932146149 -0.000291061864 0)
(0.0932755668 -0.000381166915 0)
(0.0933497966 -0.000473074189 0)
(0.0934377229 -0.000566367097 0)
(0.0935396911 -0.000660538684 0)
(0.0936559084 -0.000754957753 0)
(0.0937864573 -0.000848863247 0)
(0.093931292 -0.000941391147 0)
(0.0940902058 -0.00103159255 0)
(0.0942628063 -0.00111845018 0)
(0.0944485046 -0.00120090321 0)
(0.0946465055 -0.00127787791 0)
(0.0948558039 -0.00134832224 0)
(0.0950751907 -0.00141124335 0)
(0.0953032664 -0.00146574573 0)
(0.0955384643 -0.00151106706 0)
(0.0957790816 -0.00154660922 0)
(0.0960233175 -0.00157196208 0)
(0.096269317 -0.00158691888 0)
(0.0965152168 -0.00159148219 0)
(0.0967591924 -0.00158586047 0)
(0.0969995018 -0.00157045594 0)
(0.0972345247 -0.00154584476 0)
(0.0974627959 -0.00151275122 0)
(0.09768303 -0.00147201773 0)
(0.0978941378 -0.00142457254 0)
(0.098095235 -0.00137139714 0)
(0.0982856428 -0.00131349496 0)
(0.0984648813 -0.00125186287 0)
(0.0986326586 -0.00118746635 0)
(0.0987888545 -0.001121219 0)
(0.0989335015 -0.00105396669 0)
(0.0990667651 -0.00098647616 0)
(0.0991889229 -0.000919427871 0)
(0.0993003435 -0.00085341263 0)
(0.099401468 -0.000788931449 0)
(0.0994927914 -0.000726398002 0)
(0.0995748464 -0.000666143205 0)
(0.0996481897 -0.000608421287 0)
(0.099713389 -0.000553416793 0)
(0.0997710142 -0.000501252166 0)
(0.0998216289 -0.000451995558 0)
(0.099865784 -0.000405668673 0)
(0.0999040124 -0.000362254469 0)
(0.0999368249 -0.000321704295 0)
(0.0999647088 -0.000283944399 0)
(0.0999881261 -0.0002488818 0)
(0.100007512 -0.000216409153 0)
(0.100023272 -0.00018640875 0)
(0.100035789 -0.000158755606 0)
(0.100045419 -0.000133319355 0)
(0.100052498 -0.00010996744 0)
(0.100057345 -8.85717242e-05 0)
(0.100060256 -6.90145403e-05 0)
(0.100061481 -5.11889368e-05 0)
(0.10006122 -3.49952152e-05 0)
(0.100059619 -2.03377553e-05 0)
(0.100056781 -7.12466469e-06 0)
(0.100052831 4.72769351e-06 0)
(0.100047954 1.53057697e-05 0)
(0.100042296 2.47822596e-05 0)
(0.100035952 3.32314845e-05 0)
(0.100029003 4.072273e-05 0)
(0.10002153 4.73329903e-05 0)
(0.100013611 5.31344776e-05 0)
(0.100005313 5.81973512e-05 0)
(0.0999967012 6.25889285e-05 0)
(0.0999878339 6.63717359e-05 0)
(0.0999787651 6.96034765e-05 0)
(0.0999695431 7.2336884e-05 0)
(0.0999602111 7.46195952e-05 0)
(0.0999508074 7.64945349e-05 0)
(0.0999413652 7.80004476e-05 0)
(0.0999319137 7.91724133e-05 0)
(0.0999224775 8.00423259e-05 0)
(0.0999130783 8.06393013e-05 0)
(0.0999037342 8.09900021e-05 0)
(0.0998944612 8.11188799e-05 0)
(0.0998852728 8.10483549e-05 0)
(0.0998761807 8.07989482e-05 0)
(0.0998671952 8.03893864e-05 0)
(0.0998583249 7.98366893e-05 0)
(0.0998495775 7.915625e-05 0)
(0.0998409595 7.83619137e-05 0)
(0.0998324765 7.74660618e-05 0)
(0.099824133 7.64797053e-05 0)
(0.0998159329 7.54125884e-05 0)
(0.0998078793 7.42733009e-05 0)
(0.0997999745 7.30693894e-05 0)
(0.0997922202 7.18074397e-05 0)
(0.099784618 7.04931007e-05 0)
(0.0997771685 6.91310541e-05 0)
(0.0997698735 6.77251261e-05 0)
(0.0997627298 6.62777595e-05 0)
(0.0997557502 6.47920256e-05 0)
(0.0997488919 6.32624432e-05 0)
(0.0997423055 6.17123812e-05 0)
(0.0997354925 6.00379712e-05 0)
(0.0997302764 5.86510723e-05 0)
(0.0997209781 5.58338719e-05 0)
(0.100000293 -1.66989902e-05 0)
(0.100005122 -6.35013245e-05 0)
(0.100018588 -0.000126675672 0)
(0.100044366 -0.000202845194 0)
(0.100084436 -0.000283116736 0)
(0.100138791 -0.000353949407 0)
(0.100205139 -0.000400309814 0)
(0.100278828 -0.000410780015 0)
(0.100353497 -0.000381160128 0)
(0.100422331 -0.000314795249 0)
(0.100479393 -0.000220671812 0)
(0.100520627 -0.000110832066 0)
(0.100544215 2.23608597e-06 0)
(0.100550419 0.000107098554 0)
(0.100541344 0.000194002287 0)
(0.100520247 0.000257372316 0)
(0.100490857 0.000295067347 0)
(0.100457054 0.000307525986 0)
(0.100422561 0.00029706218 0)
(0.100390737 0.000267248238 0)
(0.100364417 0.000222788384 0)
(0.100345703 0.00016994872 0)
(0.100335617 0.000117066469 0)
(0.100333709 7.44169095e-05 0)
(0.100337852 5.28984051e-05 0)
(0.100344335 6.16889352e-05 0)
(0.100348122 0.000105846223 0)
(0.100343391 0.000184888797 0)
(0.100324516 0.0002927668 0)
(0.100287094 0.000419180714 0)
(0.100228621 0.000551783966 0)
(0.100148704 0.000678519427 0)
(0.10004887 0.000789449618 0)
(0.0999321126 0.000877759731 0)
(0.0998023295 0.000939949903 0)
(0.0996637886 0.000975473955 0)
(0.0995207026 0.000986170332 0)
(0.099376909 0.000975776739 0)
(0.0992356154 0.000949666574 0)
(0.0990991555 0.000914749116 0)
(0.0989687375 0.000879307436 0)
(0.0988442152 0.000852488069 0)
(0.0987239552 0.000843256687 0)
(0.098604897 0.000858873686 0)
(0.0984828878 0.000903226797 0)
(0.0983533057 0.000975553629 0)
(0.0982118878 0.00107008621 0)
(0.0980555804 0.00117691786 0)
(0.0978831833 0.00128399805 0)
(0.09769559 0.00137975032 0)
(0.097495547 0.00145555041 0)
(0.0972870013 0.00150731465 0)
(0.0970742395 0.00153574616 0)
(0.0968610759 0.00154526077 0)
(0.0966503091 0.00154207176 0)
(0.0964435565 0.00153216171 0)
(0.0962414354 0.0015198129 0)
(0.0960439506 0.00150705455 0)
(0.0958509112 0.00149397886 0)
(0.0956622327 0.00147956894 0)
(0.0954780657 0.00146258619 0)
(0.0952987699 0.00144217724 0)
(0.0951248061 0.00141808096 0)
(0.0949566213 0.00139051581 0)
(0.094794573 0.00135992594 0)
(0.0946389078 0.00132674968 0)
(0.0944897767 0.00129129443 0)
(0.0943472656 0.00125371859 0)
(0.0942114225 0.00121407387 0)
(0.0940822751 0.00117235731 0)
(0.09395984 0.0011285439 0)
(0.0938441273 0.00108259512 0)
(0.0937351467 0.00103445348 0)
(0.0936329146 0.000984034609 0)
(0.0935374621 0.000931223616 0)
(0.0934488436 0.000875876334 0)
(0.0933671427 0.000817823258 0)
(0.093292476 0.000756874128 0)
(0.0932249931 0.000692822601 0)
(0.0931648729 0.000625454556 0)
(0.0931123221 0.000554565088 0)
(0.0930675818 0.000479972346 0)
(0.0930309309 0.000401514271 0)
(0.0930026681 0.000319008033 0)
(0.0929830505 0.000232257541 0)
(0.0929723193 0.000141116299 0)
(0.0929713235 4.56238751e-05 0)
(0.0929811991 -5.36874206e-05 0)
(0.0930022628 -0.000155912486 0)
(0.0930348857 -0.000261155325 0)
(0.0930799843 -0.000369456969 0)
(0.0931383456 -0.000480577484 0)
(0.0932105913 -0.00059409031 0)
(0.0932972753 -0.00070944478 0)
(0.0933988761 -0.000825974536 0)
(0.0935157586 -0.000942870095 0)
(0.093648153 -0.00105917179 0)
(0.0937961344 -0.0011737869 0)
(0.0939595919 -0.00128550963 0)
(0.0941381995 -0.00139304495 0)
(0.0943313946 -0.00149504173 0)
(0.0945383633 -0.00159013308 0)
(0.094758034 -0.00167698092 0)
(0.0949890811 -0.00175432356 0)
(0.0952299415 -0.00182102397 0)
(0.0954788417 -0.0018761157 0)
(0.0957338366 -0.00191884338 0)
(0.0959928572 -0.00194869476 0)
(0.0962537656 -0.00196542187 0)
(0.0965144138 -0.00196904971 0)
(0.0967727023 -0.00195987192 0)
(0.0970266358 -0.00193843405 0)
(0.0972743718 -0.00190550613 0)
(0.0975142612 -0.00186204689 0)
(0.0977448773 -0.00180916254 0)
(0.0979650344 -0.00174806288 0)
(0.0981737952 -0.00168001771 0)
(0.0983704686 -0.00160631565 0)
(0.0985545991 -0.00152822727 0)
(0.0987259496 -0.00144697369 0)
(0.0988844797 -0.00136370135 0)
(0.0990303206 -0.00127946299 0)
(0.0991637493 -0.00119520477 0)
(0.0992851622 -0.00111175882 0)
(0.0993950501 -0.00102984063 0)
(0.0994939747 -0.000950050492 0)
(0.0995825475 -0.000872877928 0)
(0.0996614114 -0.000798708612 0)
(0.099731225 -0.000727832808 0)
(0.0997926499 -0.000660454725 0)
(0.0998463394 -0.000596702468 0)
(0.0998929303 -0.000536638249 0)
(0.0999330363 -0.000480268298 0)
(0.0999672438 -0.000427552128 0)
(0.099996109 -0.00037841102 0)
(0.100020156 -0.000332736067 0)
(0.100039874 -0.000290395881 0)
(0.100055722 -0.000251243495 0)
(0.100068125 -0.000215122405 0)
(0.100077479 -0.000181873033 0)
(0.100084143 -0.000151339467 0)
(0.100088433 -0.000123373497 0)
(0.100090617 -9.7833959e-05 0)
(0.100090921 -7.45843197e-05 0)
(0.100089553 -5.34909441e-05 0)
(0.100086713 -3.44209868e-05 0)
(0.10008259 -1.72352052e-05 0)
(0.100077378 -1.76880259e-06 0)
(0.100071292 1.21288302e-05 0)
(0.100064479 2.45665685e-05 0)
(0.10005702 3.5644886e-05 0)
(0.100049013 4.54664269e-05 0)
(0.100040549 5.41321028e-05 0)
(0.100031703 6.17417276e-05 0)
(0.10002254 6.83885127e-05 0)
(0.10001312 7.41598423e-05 0)
(0.100003494 7.91375618e-05 0)
(0.0999937108 8.3397035e-05 0)
(0.0999838129 8.700724e-05 0)
(0.0999738388 9.00311449e-05 0)
(0.0999638232 9.25259692e-05 0)
(0.0999537968 9.45435545e-05 0)
(0.099943787 9.61308193e-05 0)
(0.0999338178 9.7330219e-05 0)
(0.0999239101 9.8180191e-05 0)
(0.0999140819 9.87155734e-05 0)
(0.0999043486 9.89679822e-05 0)
(0.0998947235 9.89661413e-05 0)
(0.0998852176 9.87361665e-05 0)
(0.0998758399 9.83018074e-05 0)
(0.0998665982 9.76846507e-05 0)
(0.0998574985 9.69042942e-05 0)
(0.0998485458 9.59784948e-05 0)
(0.0998397442 9.49232982e-05 0)
(0.0998310966 9.37531562e-05 0)
(0.0998226054 9.24810345e-05 0)
(0.0998142724 9.11185143e-05 0)
(0.0998060986 8.96758859e-05 0)
(0.0997980849 8.81622305e-05 0)
(0.0997902315 8.658548e-05 0)
(0.0997825388 8.49524529e-05 0)
(0.099775006 8.32688268e-05 0)
(0.0997676339 8.15392754e-05 0)
(0.0997604179 7.97668495e-05 0)
(0.0997533699 7.79555374e-05 0)
(0.0997464435 7.60992205e-05 0)
(0.0997397921 7.42271559e-05 0)
(0.0997328834 7.22156297e-05 0)
(0.099727601 7.05595799e-05 0)
(0.0997179013 6.72101157e-05 0)
(0.100000335 -1.92899124e-05 0)
(0.100005472 -7.42963928e-05 0)
(0.100019513 -0.000148780289 0)
(0.100046098 -0.000238791583 0)
(0.100087097 -0.000334192565 0)
(0.100142382 -0.000419383127 0)
(0.100209608 -0.000476827247 0)
(0.100284184 -0.000492953197 0)
(0.100359905 -0.000462403612 0)
(0.100430117 -0.000388591455 0)
(0.100488963 -0.000281698469 0)
(0.100532349 -0.000155814695 0)
(0.100558481 -2.60988314e-05 0)
(0.100567178 9.36500052e-05 0)
(0.10056012 0.000193438842 0)
(0.100540744 0.000266897372 0)
(0.100512837 0.000311270881 0)
(0.100480268 0.000326895192 0)
(0.100446797 0.000316259965 0)
(0.100415838 0.000283291572 0)
(0.1003903 0.000233243348 0)
(0.100372386 0.000173205144 0)
(0.100363321 0.000112685429 0)
(0.100362946 6.33919363e-05 0)
(0.100369227 3.78112839e-05 0)
(0.100378107 4.67153792e-05 0)
(0.100384089 9.63586124e-05 0)
(0.100381263 0.000186672353 0)
(0.100364198 0.000311025753 0)
(0.100328664 0.000457681069 0)
(0.100272171 0.000612346367 0)
(0.100194203 0.000760918646 0)
(0.100096105 0.00089165791 0)
(0.099980696 0.000996411622 0)
(0.0998517487 0.00107089024 0)
(0.0997134674 0.00111427232 0)
(0.0995700547 0.00112854046 0)
(0.0994253789 0.00111790334 0)
(0.0992827138 0.00108848074 0)
(0.0991444962 0.00104819218 0)
(0.0990120626 0.00100658872 0)
(0.0988853879 0.000974293156 0)
(0.0987629186 0.000961819963 0)
(0.0986416208 0.000977816661 0)
(0.0985173264 0.00102709853 0)
(0.0983853757 0.00110909005 0)
(0.0982414538 0.00121730948 0)
(0.0980824365 0.00134028628 0)
(0.0979070332 0.0014638465 0)
(0.0977160444 0.00157420342 0)
(0.0975121546 0.00166095276 0)
(0.0972993102 0.00171905382 0)
(0.0970818682 0.00174921453 0)
(0.0968637679 0.00175666756 0)
(0.0966479568 0.00174889114 0)
(0.0964361928 0.00173315092 0)
(0.0962292038 0.00171468988 0)
(0.0960270684 0.00169602229 0)
(0.0958296372 0.00167729271 0)
(0.0956368455 0.00165727483 0)
(0.0954488516 0.00163445792 0)
(0.0952660168 0.00160779884 0)
(0.0950887993 0.00157698492 0)
(0.0949176371 0.00154230109 0)
(0.0947528718 0.00150431834 0)
(0.094594725 0.00146360604 0)
(0.0944433148 0.00142057419 0)
(0.0942986879 0.0013754481 0)
(0.0941608492 0.00132831915 0)
(0.0940297817 0.0012792086 0)
(0.0939054567 0.00122810788 0)
(0.0937878412 0.00117498935 0)
(0.0936769036 0.00111979932 0)
(0.0935726218 0.00106244829 0)
(0.0934749923 0.00100280653 0)
(0.0933840377 0.000940706465 0)
(0.0932998135 0.000875949004 0)
(0.093222412 0.000808311358 0)
(0.0931519652 0.0007375549 0)
(0.0930886446 0.000663434227 0)
(0.0930326633 0.000585708514 0)
(0.0929842796 0.000504152873 0)
(0.0929438037 0.000418566545 0)
(0.0929116042 0.000328784568 0)
(0.0928881049 0.00023470494 0)
(0.0928738592 0.000136353055 0)
(0.0928693567 3.38992729e-05 0)
(0.0928750429 -7.28392201e-05 0)
(0.0928916727 -0.000183995049 0)
(0.0929201692 -0.000299264222 0)
(0.0929614418 -0.000418393186 0)
(0.0930163222 -0.000541114889 0)
(0.093085566 -0.000667025168 0)
(0.0931698931 -0.000795552325 0)
(0.093269965 -0.000925952183 0)
(0.0933863356 -0.00105730032 0)
(0.0935194161 -0.0011884902 0)
(0.0936694448 -0.00131824383 0)
(0.0938364495 -0.0014451307 0)
(0.0940202093 -0.00156759503 0)
(0.0942202226 -0.00168399408 0)
(0.0944356837 -0.00179264752 0)
(0.0946654687 -0.0018918953 0)
(0.0949081368 -0.00198016135 0)
(0.0951619459 -0.00205601901 0)
(0.0954248849 -0.00211825352 0)
(0.0956947224 -0.00216591705 0)
(0.0959690675 -0.00219837168 0)
(0.0962454407 -0.00221531726 0)
(0.0965213502 -0.00221680198 0)
(0.0967943673 -0.00220321511 0)
(0.0970621974 -0.00217526317 0)
(0.097322741 -0.00213393185 0)
(0.0975741425 -0.00208043719 0)
(0.0978148245 -0.00201617013 0)
(0.0980435077 -0.00194263843 0)
(0.0982592154 -0.00186140975 0)
(0.0984612673 -0.00177405902 0)
(0.0986492611 -0.0016821224 0)
(0.0988230484 -0.0015870591 0)
(0.0989827037 -0.00149022187 0)
(0.0991284917 -0.00139283595 0)
(0.0992608338 -0.001295986 0)
(0.0993802748 -0.00120060998 0)
(0.0994874527 -0.00110749904 0)
(0.0995830706 -0.00101730203 0)
(0.0996678728 -0.000930533599 0)
(0.0997426236 -0.00084758482 0)
(0.0998080902 -0.000768735451 0)
(0.099865029 -0.000694166986 0)
(0.0999141743 -0.000623975926 0)
(0.0999562314 -0.000558186664 0)
(0.0999918703 -0.000496763588 0)
(0.100021722 -0.00043962249 0)
(0.100046377 -0.000386641155 0)
(0.100066384 -0.000337668624 0)
(0.100082247 -0.000292533019 0)
(0.100094432 -0.000251048329 0)
(0.10010336 -0.000213019979 0)
(0.10010941 -0.000178248997 0)
(0.100112926 -0.000146535411 0)
(0.100114228 -0.000117680777 0)
(0.100113621 -9.14893501e-05 0)
(0.10011139 -6.77684514e-05 0)
(0.100107784 -4.6330678e-05 0)
(0.100103009 -2.69967845e-05 0)
(0.100097249 -9.60185858e-06 0)
(0.100090621 6.00851047e-06 0)
(0.100083182 1.99894285e-05 0)
(0.100075057 3.24539795e-05 0)
(0.100066385 4.35214325e-05 0)
(0.100057261 5.33108e-05 0)
(0.100047764 6.19284157e-05 0)
(0.100037964 6.94742201e-05 0)
(0.100027926 7.60427027e-05 0)
(0.100017705 8.17222341e-05 0)
(0.100007351 8.65952271e-05 0)
(0.0999969077 9.07379774e-05 0)
(0.0999864149 9.42206826e-05 0)
(0.0999759073 9.71076797e-05 0)