/*--------------------------------*- C++ -*----------------------------------*\
| =========                 |                                                 |
| \\      /  F ield         | OpenFOAM: The Open Source CFD Toolbox           |
|  \\    /   O peration     | Version:  v2012                                 |
|   \\  /    A nd           | Website:  www.openfoam.com                      |
|    \\/     M anipulation  |                                                 |
\*---------------------------------------------------------------------------*/
FoamFile
{
    version     2.0;
    format      ascii;
    class       volVectorField;
    location    "2.54";
    object      H;
}
// * * * * * * * * * * * * * * * * * * * * * * * * * * * * * * * * * * * * * //

dimensions      [0 1 -2 0 0 0 0];


internalField   nonuniform List<vector> 
28416
(
(262.222332 0.00603569368 0)
(262.218367 0.0438747549 0)
(262.201086 0.110245826 0)
(262.154334 0.197270089 0)
(262.071347 0.294611664 0)
(261.951439 0.391602934 0)
(261.797573 0.478075411 0)
(261.615346 0.545362804 0)
(261.412645 0.587292627 0)
(261.198762 0.601023669 0)
(260.983116 0.587159541 0)
(260.774352 0.548769898 0)
(260.580061 0.490014171 0)
(260.406804 0.415632762 0)
(260.259913 0.331763187 0)
(260.142754 0.247116494 0)
(260.055548 0.172987956 0)
(259.994427 0.121491826 0)
(259.951402 0.102386496 0)
(259.914983 0.120211432 0)
(259.872004 0.173501413 0)
(259.811063 0.255361607 0)
(259.72522 0.354654506 0)
(259.612159 0.458181868 0)
(259.47333 0.553262965 0)
(259.313449 0.62949772 0)
(259.13972 0.679503558 0)
(258.96049 0.699138943 0)
(258.78408 0.68748724 0)
(258.618212 0.646629826 0)
(258.469736 0.581314641 0)
(258.344324 0.498638236 0)
(258.246178 0.407785493 0)
(258.177515 0.319510869 0)
(258.137685 0.245407794 0)
(258.122876 0.196665512 0)
(258.126235 0.182203169 0)
(258.138663 0.207169802 0)
(258.150481 0.271320227 0)
(258.15297 0.368284067 0)
(258.139703 0.48653905 0)
(258.107558 0.611867631 0)
(258.057041 0.730501259 0)
(257.991718 0.832063122 0)
(257.916932 0.911446996 0)
(257.838257 0.969098657 0)
(257.760141 1.00973797 0)
(257.68513 1.04011217 0)
(257.613767 1.06665745 0)
(257.545077 1.0938532 0)
(257.477308 1.12365394 0)
(257.408638 1.15589516 0)
(257.337633 1.18922668 0)
(257.263377 1.22205447 0)
(257.185384 1.25313886 0)
(257.103406 1.28176167 0)
(257.01727 1.3075864 0)
(256.9268 1.3304141 0)
(256.831816 1.34999422 0)
(256.732181 1.36595205 0)
(256.627842 1.37781144 0)
(256.518871 1.38505738 0)
(256.405465 1.38719163 0)
(256.287953 1.38376171 0)
(256.166784 1.37436783 0)
(256.042528 1.35866183 0)
(255.915868 1.33634524 0)
(255.787601 1.30717037 0)
(255.658629 1.27094441 0)
(255.529953 1.22753474 0)
(255.402666 1.17687437 0)
(255.277944 1.11896692 0)
(255.157038 1.05389037 0)
(255.041278 0.981798638 0)
(254.932067 0.902918842 0)
(254.830877 0.817541829 0)
(254.739256 0.726007667 0)
(254.658806 0.628680944 0)
(254.591141 0.525923757 0)
(254.537809 0.418092868 0)
(254.500197 0.305554671 0)
(254.479496 0.188741508 0)
(254.475905 0.0683377375 0)
(254.491784 -0.0533885244 0)
(254.531264 -0.175837502 0)
(254.595236 -0.300140152 0)
(254.683183 -0.42605051 0)
(254.795278 -0.552751971 0)
(254.931933 -0.679446083 0)
(255.093166 -0.805245644 0)
(255.278748 -0.929169447 0)
(255.488246 -1.05019427 0)
(255.720958 -1.16726184 0)
(255.975897 -1.27928051 0)
(256.251811 -1.38514381 0)
(256.547202 -1.48376041 0)
(256.860342 -1.57409103 0)
(257.189299 -1.6551882 0)
(257.531963 -1.72623272 0)
(257.886072 -1.78656194 0)
(258.249242 -1.83568801 0)
(258.619005 -1.87330664 0)
(258.992844 -1.89929839 0)
(259.368241 -1.9137246 0)
(259.742718 -1.91681938 0)
(260.113885 -1.90897834 0)
(260.47947 -1.89074381 0)
(260.837361 -1.86278706 0)
(261.185628 -1.82588752 0)
(261.522546 -1.78091009 0)
(261.846606 -1.72878121 0)
(262.156528 -1.6704651 0)
(262.451258 -1.60694088 0)
(262.729967 -1.53918143 0)
(262.99204 -1.46813469 0)
(263.237066 -1.39470711 0)
(263.464819 -1.31975045 0)
(263.675234 -1.24404943 0)
(263.868376 -1.1683044 0)
(264.044443 -1.09311907 0)
(264.203767 -1.01900165 0)
(264.346805 -0.946374158 0)
(264.474127 -0.875583724 0)
(264.586386 -0.806911976 0)
(264.684278 -0.740552711 0)
(264.768589 -0.676576183 0)
(264.840243 -0.615018595 0)
(264.900204 -0.555964042 0)
(264.949375 -0.499501007 0)
(264.988591 -0.445682178 0)
(265.018643 -0.394486394 0)
(265.040292 -0.345845772 0)
(265.054304 -0.299674746 0)
(265.061456 -0.25588434 0)
(265.06252 -0.214390015 0)
(265.058271 -0.175117742 0)
(265.049502 -0.138022924 0)
(265.03702 -0.103149482 0)
(265.021594 -0.0706869998 0)
(265.003859 -0.0410109708 0)
(264.984295 -0.014756278 0)
(264.962634 0.00777772137 0)
(264.9378 0.0271782743 0)
(264.90954 0.044204518 0)
(264.87856 0.0592754526 0)
(264.845466 0.0726095186 0)
(264.810618 0.0843851054 0)
(264.774292 0.0947690621 0)
(264.736748 0.103913377 0)
(264.698244 0.111951708 0)
(264.659022 0.118997762 0)
(264.6193 0.125148167 0)
(264.579272 0.13048491 0)
(264.539113 0.135075667 0)
(264.498975 0.138975427 0)
(264.458992 0.142230144 0)
(264.419275 0.144880463 0)
(264.379916 0.146964491 0)
(264.340996 0.14851961 0)
(264.30258 0.149583377 0)
(264.264725 0.150193645 0)
(264.22748 0.150388198 0)
(264.190888 0.150204187 0)
(264.154987 0.149677516 0)
(264.119813 0.148842234 0)
(264.085397 0.147729984 0)
(264.051768 0.146369577 0)
(264.018949 0.144786732 0)
(263.986965 0.143004003 0)
(263.955833 0.141040893 0)
(263.925569 0.138914128 0)
(263.896186 0.136638079 0)
(263.867694 0.134225251 0)
(263.840099 0.131686784 0)
(263.813406 0.12903291 0)
(263.787617 0.126273316 0)
(263.762733 0.123417377 0)
(263.738754 0.120474271 0)
(263.71568 0.117452967 0)
(263.69351 0.114362113 0)
(263.672244 0.111209849 0)
(263.651884 0.108003554 0)
(263.632432 0.10474964 0)
(263.613886 0.101452735 0)
(263.596274 0.0981171823 0)
(263.579531 0.0947360325 0)
(263.56394 0.0913355783 0)
(263.548621 0.0877498886 0)
(263.536976 0.0846417052 0)
(263.515288 0.0786749765 0)
(262.224818 0.00299401165 0)
(262.22747 0.0598610413 0)
(262.22339 0.173672118 0)
(262.190345 0.328387378 0)
(262.116272 0.502783909 0)
(261.998912 0.675730705 0)
(261.841621 0.82873698 0)
(261.650746 0.947450413 0)
(261.435186 1.02231273 0)
(261.205671 1.04920919 0)
(260.973296 1.02937355 0)
(260.748343 0.967731183 0)
(260.539904 0.870707954 0)
(260.355907 0.745559374 0)
(260.202894 0.60192847 0)
(260.085091 0.454022438 0)
(260.003066 0.32085773 0)
(259.952516 0.223325483 0)
(259.924147 0.179026962 0)
(259.905193 0.197091686 0)
(259.881411 0.275565136 0)
(259.839144 0.402213243 0)
(259.767992 0.557549685 0)
(259.662788 0.719027897 0)
(259.523823 0.865429652 0)
(259.356056 0.979991814 0)
(259.167937 1.05165994 0)
(258.969898 1.07503423 0)
(258.772865 1.04969063 0)
(258.587237 0.979300906 0)
(258.422297 0.870921937 0)
(258.285794 0.73466499 0)
(258.183463 0.583678015 0)
(258.118424 0.433860353 0)
(258.090328 0.303016255 0)
(258.094729 0.209073487 0)
(258.123486 0.167089696 0)
(258.165461 0.185946954 0)
(258.207591 0.265385263 0)
(258.237123 0.395169823 0)
(258.244192 0.556945804 0)
(258.223666 0.72823619 0)
(258.175796 0.887522196 0)
(258.105587 1.01895581 0)
(258.021029 1.11528549 0)
(257.930761 1.17815609 0)
(257.841896 1.21590094 0)
(257.758649 1.23982681 0)
(257.682052 1.26042677 0)
(257.610629 1.28478105 0)
(257.541598 1.3157447 0)
(257.472045 1.35272219 0)
(257.399704 1.39327314 0)
(257.323208 1.43468709 0)
(257.241929 1.47495281 0)
(257.155649 1.51299405 0)
(257.064263 1.54839537 0)
(256.96763 1.58096611 0)
(256.865559 1.61041037 0)
(256.757882 1.63620236 0)
(256.644525 1.65762605 0)
(256.525565 1.6738819 0)
(256.401238 1.68418122 0)
(256.271932 1.68779721 0)
(256.138177 1.68407809 0)
(256.000639 1.67244081 0)
(255.860106 1.65236602 0)
(255.71749 1.62340041 0)
(255.573815 1.58516401 0)
(255.430212 1.5373581 0)
(255.287911 1.47977062 0)
(255.148228 1.41227828 0)
(255.012559 1.33484564 0)
(254.882369 1.24752167 0)
(254.759182 1.15043391 0)
(254.644568 1.04377967 0)
(254.54013 0.927816307 0)
(254.447481 0.8028493 0)
(254.368224 0.669224789 0)
(254.303913 0.527340744 0)
(254.256028 0.377720856 0)
(254.226199 0.221140421 0)
(254.217001 0.0585685527 0)
(254.231099 -0.108849694 0)
(254.268289 -0.279796274 0)
(254.32929 -0.453976531 0)
(254.415576 -0.630634294 0)
(254.527789 -0.808623628 0)
(254.666346 -0.986751165 0)
(254.83146 -1.16369838 0)
(255.023048 -1.33800032 0)
(255.240744 -1.50810229 0)
(255.483875 -1.67239501 0)
(255.751453 -1.82924466 0)
(256.042177 -1.97703299 0)
(256.354444 -2.11419984 0)
(256.686366 -2.23928503 0)
(257.035796 -2.35096934 0)
(257.400354 -2.44811253 0)
(257.777466 -2.52978637 0)
(258.164403 -2.59530121 0)
(258.558333 -2.6442248 0)
(258.956372 -2.67639231 0)
(259.35564 -2.69190711 0)
(259.753315 -2.69113243 0)
(260.146687 -2.6746747 0)
(260.533203 -2.64335967 0)
(260.91051 -2.59820289 0)
(261.276481 -2.54037623 0)
(261.629243 -2.47117205 0)
(261.967187 -2.39196659 0)
(262.288981 -2.30418415 0)
(262.593561 -2.20926323 0)
(262.880127 -2.10862557 0)
(263.148134 -2.00364893 0)
(263.397265 -1.89564362 0)
(263.627418 -1.78583392 0)
(263.838684 -1.67534241 0)
(264.031313 -1.56517125 0)
(264.205704 -1.45618926 0)
(264.362376 -1.34913039 0)
(264.501953 -1.2445976 0)
(264.625151 -1.14307176 0)
(264.732783 -1.04492445 0)
(264.825775 -0.950418984 0)
(264.905083 -0.859706805 0)
(264.971603 -0.772885339 0)
(265.026235 -0.690051805 0)
(265.069908 -0.611280996 0)
(265.103582 -0.536609779 0)
(265.128181 -0.466057472 0)
(265.144538 -0.399590258 0)
(265.153442 -0.33711738 0)
(265.155668 -0.278520131 0)
(265.151971 -0.22368711 0)
(265.143082 -0.172578639 0)
(265.129657 -0.125175586 0)
(265.112231 -0.0814525052 0)
(265.09119 -0.0414013367 0)
(265.066697 -0.00467990189 0)
(265.039409 0.0285468258 0)
(265.010225 0.0577504891 0)
(264.979242 0.0831090461 0)
(264.946179 0.105314053 0)
(264.911117 0.124859909 0)
(264.874386 0.142018568 0)
(264.836285 0.157008424 0)
(264.797062 0.170040045 0)
(264.75694 0.181309957 0)
(264.716131 0.190994186 0)
(264.674836 0.199245874 0)
(264.633237 0.206199887 0)
(264.591499 0.211977771 0)
(264.549768 0.216688486 0)
(264.508174 0.22042859 0)
(264.466835 0.223284017 0)
(264.425851 0.225331963 0)
(264.385311 0.226642205 0)
(264.345291 0.227278283 0)
(264.305858 0.22729865 0)
(264.267068 0.226757579 0)
(264.228968 0.225705737 0)
(264.1916 0.224190534 0)
(264.154999 0.222256295 0)
(264.119195 0.219944329 0)
(264.084215 0.217292912 0)
(264.05008 0.214337246 0)
(264.016808 0.211109454 0)
(263.984417 0.207638625 0)
(263.95292 0.203950916 0)
(263.922326 0.200069722 0)
(263.892645 0.196015901 0)
(263.863883 0.191808034 0)
(263.836042 0.187462694 0)
(263.809127 0.182994716 0)
(263.783138 0.178417431 0)
(263.758074 0.173742849 0)
(263.733935 0.168981796 0)
(263.71072 0.164143975 0)
(263.688426 0.159237964 0)
(263.667053 0.154271144 0)
(263.646598 0.14924951 0)
(263.627063 0.144177526 0)
(263.608441 0.139057048 0)
(263.590755 0.133889657 0)
(263.573929 0.128660783 0)
(263.558238 0.123408079 0)
(263.542717 0.117886803 0)
(263.53088 0.113120783 0)
(263.508201 0.104215979 0)
(262.224861 -0.00242038528 0)
(262.224633 0.0504227835 0)
(262.215318 0.172113131 0)
(262.178072 0.345572247 0)
(262.102148 0.544928844 0)
(261.984898 0.744009497 0)
(261.829132 0.920625073 0)
(261.640705 1.05825281 0)
(261.427938 1.14608814 0)
(261.20099 1.17937894 0)
(260.970537 1.15931677 0)
(260.746596 1.09122724 0)
(260.538085 0.982091259 0)
(260.3528 0.839794899 0)
(260.197234 0.67496934 0)
(260.07578 0.503583206 0)
(259.989404 0.347359249 0)
(259.934468 0.230436548 0)
(259.902308 0.173461534 0)
(259.879906 0.187775812 0)
(259.852358 0.272110473 0)
(259.806334 0.413027174 0)
(259.732506 0.588462879 0)
(259.626453 0.772653533 0)
(259.4886 0.940946728 0)
(259.323571 1.07342361 0)
(259.139157 1.15671798 0)
(258.945036 1.18420512 0)
(258.75153 1.1552075 0)
(258.568645 1.07385778 0)
(258.405444 0.948137782 0)
(258.269559 0.789407809 0)
(258.166692 0.612364615 0)
(258.100015 0.434931436 0)
(258.069502 0.277360929 0)
(258.071443 0.160161995 0)
(258.098287 0.100675314 0)
(258.138996 0.109122724 0)
(258.18073 0.185949317 0)
(258.211383 0.3209165 0)
(258.221623 0.49408867 0)
(258.20629 0.679862611 0)
(258.165062 0.852918157 0)
(258.102066 0.994062348 0)
(258.024414 1.09410178 0)
(257.940101 1.15457836 0)
(257.855946 1.18535538 0)
(257.776214 1.20017968 0)
(257.702219 1.21198805 0)
(257.632852 1.22958861 0)
(257.565628 1.25654692 0)
(257.49779 1.29208951 0)
(257.427074 1.33310283 0)
(257.352003 1.37613469 0)
(257.271802 1.41864701 0)
(257.186112 1.45933252 0)
(257.094727 1.49776608 0)
(256.99744 1.53383557 0)
(256.894029 1.56730316 0)
(256.784303 1.59763274 0)
(256.668182 1.62403461 0)
(256.545738 1.6456015 0)
(256.417221 1.66143048 0)
(256.283049 1.67068783 0)
(256.143799 1.67262355 0)
(256.000185 1.66656048 0)
(255.853058 1.65188491 0)
(255.703396 1.62804702 0)
(255.552295 1.59456846 0)
(255.40096 1.55105172 0)
(255.250697 1.49718748 0)
(255.102892 1.43275904 0)
(254.95901 1.35764424 0)
(254.820579 1.27181543 0)
(254.689185 1.17533811 0)
(254.566464 1.06836841 0)
(254.454093 0.951149802 0)
(254.353778 0.82401301 0)
(254.267245 0.687380729 0)
(254.196254 0.541772712 0)
(254.142623 0.387845254 0)
(254.107984 0.226348911 0)
(254.09276 0.0579593298 0)
(254.099804 -0.11683175 0)
(254.13152 -0.297177566 0)
(254.188703 -0.481970104 0)
(254.271962 -0.670219803 0)
(254.382091 -0.860735196 0)
(254.519751 -1.05212582 0)
(254.685284 -1.24286638 0)
(254.878721 -1.43130192 0)
(255.099792 -1.61567156 0)
(255.347891 -1.7941401 0)
(255.622065 -1.96483028 0)
(255.921003 -2.12586381 0)
(256.24305 -2.27541073 0)
(256.586214 -2.4117434 0)
(256.948189 -2.53329173 0)
(257.326398 -2.63869524 0)
(257.718027 -2.72684746 0)
(258.120082 -2.79692997 0)
(258.529451 -2.84843459 0)
(258.942966 -2.88117331 0)
(259.357471 -2.89527682 0)
(259.769879 -2.89118232 0)
(260.177246 -2.86961191 0)
(260.576809 -2.83154262 0)
(260.96604 -2.77816997 0)
(261.34268 -2.71086669 0)
(261.70476 -2.63113873 0)
(262.050616 -2.54058068 0)
(262.378897 -2.44083246 0)
(262.688558 -2.33353891 0)
(262.978846 -2.22031341 0)
(263.249287 -2.10270666 0)
(263.49966 -1.98218071 0)
(263.72997 -1.86008855 0)
(263.940421 -1.73765913 0)
(264.131387 -1.61598646 0)
(264.303389 -1.49602319 0)
(264.457079 -1.37857886 0)
(264.593218 -1.26432054 0)
(264.712654 -1.15377847 0)
(264.816299 -1.04735723 0)
(264.905113 -0.945365464 0)
(264.980076 -0.848053835 0)
(265.042177 -0.755591438 0)
(265.092411 -0.668052226 0)
(265.131751 -0.585448244 0)
(265.161097 -0.507753288 0)
(265.181323 -0.434936899 0)
(265.193317 -0.366932927 0)
(265.197943 -0.303629846 0)
(265.196001 -0.244885921 0)
(265.188171 -0.190535753 0)
(265.175122 -0.140352852 0)
(265.157627 -0.0941293535 0)
(265.136481 -0.0516378616 0)
(265.112822 -0.0128172629 0)
(265.087348 0.0221588225 0)
(265.059334 0.0539147287 0)
(265.028601 0.0826179004 0)
(264.995557 0.10812685 0)
(264.960472 0.130600849 0)
(264.923566 0.150352017 0)
(264.885123 0.167647365 0)
(264.84543 0.182708052 0)
(264.804737 0.195738387 0)
(264.763265 0.206931135 0)
(264.721217 0.216465618 0)
(264.67879 0.224503469 0)
(264.636163 0.231187359 0)
(264.593502 0.236643426 0)
(264.550951 0.240983421 0)
(264.508636 0.244306347 0)
(264.466667 0.246700839 0)
(264.425137 0.248247601 0)
(264.384122 0.24902111 0)
(264.343689 0.249090697 0)
(264.303892 0.248521243 0)
(264.264781 0.247373526 0)
(264.226394 0.245704314 0)
(264.188769 0.243566367 0)
(264.151936 0.241008422 0)
(264.115924 0.238075205 0)
(264.080756 0.23480744 0)
(264.046454 0.231241914 0)
(264.013035 0.227411596 0)
(263.980516 0.223345837 0)
(263.948907 0.21907062 0)
(263.918218 0.214608882 0)
(263.888457 0.209980865 0)
(263.859629 0.205204494 0)
(263.831734 0.200295734 0)
(263.804775 0.195268917 0)
(263.77875 0.190136997 0)
(263.753657 0.184911729 0)
(263.729494 0.179603764 0)
(263.706257 0.174222662 0)
(263.683943 0.168776844 0)
(263.66255 0.163273472 0)
(263.642073 0.157718254 0)
(263.622514 0.152115346 0)
(263.603862 0.146466338 0)
(263.58614 0.140773318 0)
(263.569268 0.135021856 0)
(263.553521 0.12925976 0)
(263.537965 0.123226031 0)
(263.526094 0.118071911 0)
(263.503784 0.108518001 0)
(262.224955 -0.00432051619 0)
(262.227582 0.0605214044 0)
(262.22393 0.215205203 0)
(262.19223 0.438343586 0)
(262.119831 0.696191405 0)
(262.003386 0.95435842 0)
(261.845458 1.18388123 0)
(261.65201 1.36337768 0)
(261.431794 1.4788999 0)
(261.195693 1.52421945 0)
(260.955344 1.50067858 0)
(260.721862 1.41493954 0)
(260.505254 1.27584752 0)
(260.314258 1.09343019 0)
(260.156009 0.88120398 0)
(260.035095 0.659495571 0)
(259.952175 0.456029049 0)
(259.902804 0.30188165 0)
(259.877477 0.223872536 0)
(259.863067 0.236920767 0)
(259.844726 0.339821705 0)
(259.808025 0.515690788 0)
(259.741592 0.73634838 0)
(259.639213 0.968754612 0)
(259.500465 1.18135399 0)
(259.330115 1.34873265 0)
(259.136815 1.45391401 0)
(258.93153 1.48853679 0)
(258.726066 1.45172016 0)
(258.531955 1.34851631 0)
(258.359693 1.18867879 0)
(258.21816 0.986134473 0)
(258.114019 0.759037786 0)
(258.050955 0.529753353 0)
(258.028796 0.32390058 0)
(258.042788 0.167775884 0)
(258.08385 0.084356045 0)
(258.140013 0.0878764344 0)
(258.198047 0.179409718 0)
(258.244609 0.34553128 0)
(258.268402 0.560060833 0)
(258.262926 0.790130886 0)
(258.227585 1.00363694 0)
(258.167073 1.17639114 0)
(258.089533 1.29689862 0)
(258.004094 1.36723716 0)
(257.918551 1.40000196 0)
(257.837813 1.41271328 0)
(257.763463 1.42189077 0)
(257.694335 1.43884011 0)
(257.627683 1.4682105 0)
(257.560402 1.50910827 0)
(257.489904 1.557617 0)
(257.414454 1.60934298 0)
(257.333096 1.661026 0)
(257.245353 1.71096528 0)
(257.150938 1.75859419 0)
(257.049583 1.8037637 0)
(256.941011 1.84618207 0)
(256.824997 1.88518781 0)
(256.701437 1.91979901 0)
(256.570406 1.9488814 0)
(256.432173 1.97130095 0)
(256.287196 1.98600315 0)
(256.136106 1.99202915 0)
(255.979696 1.98850637 0)
(255.818901 1.97463924 0)
(255.654798 1.94971106 0)
(255.488595 1.91309426 0)
(255.321615 1.86426199 0)
(255.155288 1.80279587 0)
(254.991143 1.72838856 0)
(254.830783 1.64084237 0)
(254.675886 1.54006554 0)
(254.52818 1.42606785 0)
(254.389436 1.29895625 0)
(254.261452 1.15893158 0)
(254.146045 1.00628695 0)
(254.045031 0.841406718 0)
(253.960224 0.664766565 0)
(253.893375 0.47691242 0)
(253.846178 0.278443577 0)
(253.821021 0.0702008752 0)
(253.821329 -0.146132571 0)
(253.847294 -0.369377891 0)
(253.899635 -0.598557067 0)
(253.979848 -0.832288816 0)
(254.088985 -1.06895784 0)
(254.227824 -1.30679893 0)
(254.39688 -1.54387187 0)
(254.596348 -1.77806239 0)
(254.826068 -2.00711862 0)
(255.085495 -2.22869573 0)
(255.373674 -2.44040515 0)
(255.689228 -2.639872 0)
(256.030361 -2.82479743 0)
(256.39487 -2.99302256 0)
(256.780178 -3.1425919 0)
(257.183371 -3.2718134 0)
(257.601256 -3.37931194 0)
(258.030425 -3.46407327 0)
(258.46733 -3.52547528 0)
(258.908357 -3.56330442 0)
(259.349914 -3.57775653 0)
(259.788504 -3.56942201 0)
(260.220802 -3.539257 0)
(260.643716 -3.4885427 0)
(261.054443 -3.41883577 0)
(261.450506 -3.3319128 0)
(261.829781 -3.22971197 0)
(262.190511 -3.11427456 0)
(262.53131 -2.98768894 0)
(262.851149 -2.85203905 0)
(263.14934 -2.70935857 0)
(263.425511 -2.56159222 0)
(263.679577 -2.41056409 0)
(263.911705 -2.25795319 0)
(264.122281 -2.10527585 0)
(264.311876 -1.95387348 0)
(264.481213 -1.80490641 0)
(264.631142 -1.65935583 0)
(264.762607 -1.51803213 0)
(264.876625 -1.38158655 0)
(264.974263 -1.25052482 0)
(265.056627 -1.12522181 0)
(265.124828 -1.00593671 0)
(265.17997 -0.892826166 0)
(265.223131 -0.785962059 0)
(265.255357 -0.68534872 0)
(265.277655 -0.590927012 0)
(265.290995 -0.502555413 0)
(265.296305 -0.420049738 0)
(265.294459 -0.343207222 0)
(265.286294 -0.271810395 0)
(265.272664 -0.205627916 0)
(265.254349 -0.144397838 0)
(265.232005 -0.087915442 0)
(265.205996 -0.0361522567 0)
(265.176448 0.0110331864 0)
(265.144178 0.053389586 0)
(265.109793 0.0910738742 0)
(265.073407 0.124548534 0)
(265.035243 0.15415913 0)
(264.99554 0.180205264 0)
(264.954505 0.20301618 0)
(264.91236 0.222903873 0)
(264.869337 0.240139397 0)
(264.825648 0.254964327 0)
(264.781487 0.267601011 0)
(264.737032 0.27825502 0)
(264.69244 0.287114167 0)
(264.647854 0.294348906 0)
(264.603402 0.300114478 0)
(264.5592 0.304551987 0)
(264.51535 0.307788404 0)
(264.471949 0.309937297 0)
(264.429082 0.311100437 0)
(264.386824 0.311369446 0)
(264.345242 0.310827296 0)
(264.304391 0.309549682 0)
(264.264319 0.307606197 0)
(264.225063 0.305061142 0)
(264.186656 0.301974051 0)
(264.149124 0.298400008 0)
(264.112488 0.294389874 0)
(264.076764 0.289990433 0)
(264.041966 0.285244534 0)
(264.008104 0.280191227 0)
(263.975186 0.274865927 0)
(263.943218 0.269300596 0)
(263.912203 0.263523949 0)
(263.882146 0.257561673 0)
(263.853046 0.251436653 0)
(263.824903 0.245169192 0)
(263.797717 0.238777231 0)
(263.771486 0.232276564 0)
(263.746205 0.225681021 0)
(263.721873 0.219002644 0)
(263.698486 0.212251814 0)
(263.676038 0.205437326 0)
(263.654526 0.19856642 0)
(263.633943 0.191644712 0)
(263.614288 0.184676284 0)
(263.595547 0.177662659 0)
(263.577739 0.170606811 0)
(263.560779 0.163492557 0)
(263.54494 0.156381035 0)
(263.529237 0.148955693 0)
(263.517241 0.142627618 0)
(263.494273 0.13092267 0)
(262.225037 -0.0110187564 0)
(262.22729 0.0545874963 0)
(262.222911 0.228778881 0)
(262.190666 0.486485109 0)
(262.117872 0.786961848 0)
(262.000915 1.08875755 0)
(261.842298 1.35763071 0)
(261.647911 1.56880964 0)
(261.426374 1.70620168 0)
(261.188446 1.7624074 0)
(260.945678 1.73854632 0)
(260.709148 1.64178841 0)
(260.488862 1.4818738 0)
(260.293613 1.27004244 0)
(260.1307 1.02172406 0)
(260.005048 0.76041772 0)
(259.917902 0.518480645 0)
(259.865562 0.332447724 0)
(259.838809 0.23427646 0)
(259.823772 0.242283731 0)
(259.804554 0.355768411 0)
(259.766587 0.555370913 0)
(259.699108 0.808323178 0)
(259.596376 1.07606395 0)
(259.457991 1.32166665 0)
(259.28841 1.5152802 0)
(259.095854 1.63685321 0)
(258.890926 1.67640279 0)
(258.68524 1.63269237 0)
(258.49031 1.51136758 0)
(258.316729 1.32346348 0)
(258.173525 1.08478557 0)
(258.067523 0.816043236 0)
(258.00268 0.542948213 0)
(257.979413 0.295201077 0)
(257.994351 0.103493738 0)
(258.039726 -0.00594887968 0)
(258.102605 -0.0158931281 0)
(258.167766 0.0761919899 0)
(258.221229 0.254570101 0)
(258.251592 0.490294737 0)
(258.252945 0.745775297 0)
(258.224657 0.983108526 0)
(258.171048 1.17330972 0)
(258.099944 1.30229857 0)
(258.020364 1.37218526 0)
(257.940169 1.39782155 0)
(257.864423 1.40017901 0)
(257.794846 1.39920202 0)
(257.73032 1.40864665 0)
(257.668045 1.43424382 0)
(257.60479 1.47497846 0)
(257.537799 1.52611763 0)
(257.465178 1.58231039 0)
(257.385831 1.63957369 0)
(257.299166 1.69583645 0)
(257.204802 1.75043344 0)
(257.102395 1.80322914 0)
(256.991607 1.8539236 0)
(256.872168 1.90176472 0)
(256.743951 1.9456022 0)
(256.607026 1.98409146 0)
(256.461683 2.01588159 0)
(256.308422 2.03971525 0)
(256.14794 2.05445013 0)
(255.981112 2.05904536 0)
(255.808978 2.05254796 0)
(255.632731 2.03409308 0)
(255.453705 2.00291471 0)
(255.273353 1.9583585 0)
(255.093235 1.8998909 0)
(254.914996 1.82710317 0)
(254.740351 1.73971135 0)
(254.571075 1.63755399 0)
(254.40899 1.52058868 0)
(254.255958 1.38888797 0)
(254.113877 1.24263563 0)
(253.984672 1.0821244 0)
(253.870283 0.907756761 0)
(253.772666 0.720051935 0)
(253.69378 0.519651037 0)
(253.635569 0.30736189 0)
(253.599629 0.084149498 0)
(253.589422 -0.149341904 0)
(253.606575 -0.391951248 0)
(253.651843 -0.642242773 0)
(253.72663 -0.898700552 0)
(253.832215 -1.15957125 0)
(253.969648 -1.42284246 0)
(254.139668 -1.6862705 0)
(254.342661 -1.94740106 0)
(254.578617 -2.20359809 0)
(254.847096 -2.45208675 0)
(255.147188 -2.69000927 0)
(255.477491 -2.91449424 0)
(255.836104 -3.12273665 0)
(256.220637 -3.31208425 0)
(256.628235 -3.48012498 0)
(257.055635 -3.62476921 0)
(257.49922 -3.74432151 0)
(257.955109 -3.8375375 0)
(258.419251 -3.90366256 0)
(258.88752 -3.94245067 0)
(259.355819 -3.95416301 0)
(259.820179 -3.93954687 0)
(260.276849 -3.89979692 0)
(260.72237 -3.83650153 0)
(261.153638 -3.75157801 0)
(261.567952 -3.64720066 0)
(261.963038 -3.52572576 0)
(262.337062 -3.38961744 0)
(262.688627 -3.24137758 0)
(263.016756 -3.08348244 0)
(263.320862 -2.91832756 0)
(263.600722 -2.74818226 0)
(263.856427 -2.575154 0)
(264.088344 -2.40116216 0)
(264.297075 -2.22792111 0)
(264.483414 -2.05693127 0)
(264.648302 -1.8894772 0)
(264.792804 -1.72663243 0)
(264.918066 -1.56926917 0)
(265.025293 -1.41807198 0)
(265.115721 -1.27355478 0)
(265.190597 -1.13608077 0)
(265.251157 -1.00588347 0)
(265.298607 -0.883083454 0)
(265.33412 -0.767702745 0)
(265.358819 -0.659680528 0)
(265.373776 -0.558888137 0)
(265.380007 -0.465143759 0)
(265.378472 -0.378232243 0)
(265.370073 -0.297916015 0)
(265.355642 -0.223940994 0)
(265.33591 -0.156034263 0)
(265.311512 -0.0939498333 0)
(265.282952 -0.0374004223 0)
(265.251102 0.0139987838 0)
(265.216957 0.0604801066 0)
(265.180642 0.102531626 0)
(265.142347 0.140205156 0)
(265.10227 0.173741886 0)
(265.060629 0.203419958 0)
(265.017676 0.229503213 0)
(264.973643 0.252269664 0)
(264.928746 0.271998931 0)
(264.883191 0.288953863 0)
(264.837173 0.303378805 0)
(264.790868 0.315501648 0)
(264.744442 0.325534129 0)
(264.698051 0.333671301 0)
(264.651836 0.340091461 0)
(264.605928 0.344957474 0)
(264.560439 0.348418657 0)
(264.515464 0.350612182 0)
(264.471084 0.351663864 0)
(264.427365 0.351688664 0)
(264.384363 0.350791205 0)
(264.342125 0.349066435 0)
(264.300693 0.346600383 0)
(264.260099 0.343470958 0)
(264.220374 0.339748716 0)
(264.181544 0.335497594 0)
(264.143628 0.330775565 0)
(264.106646 0.325635198 0)
(264.070612 0.320124108 0)
(264.03554 0.314285316 0)
(264.001436 0.308157576 0)
(263.96831 0.301775679 0)
(263.936165 0.295170762 0)
(263.905003 0.288370611 0)
(263.874825 0.28139998 0)
(263.84563 0.274280895 0)
(263.817413 0.267032936 0)
(263.79017 0.259673508 0)
(263.763896 0.25221805 0)
(263.738584 0.244680204 0)
(263.714228 0.237071925 0)
(263.69082 0.229403547 0)
(263.668355 0.221683802 0)
(263.646825 0.213919818 0)
(263.626224 0.206117056 0)
(263.606546 0.198279451 0)
(263.587779 0.190408432 0)
(263.569939 0.182507512 0)
(263.552941 0.174559916 0)
(263.537055 0.166636245 0)
(263.521328 0.158389798 0)
(263.509299 0.151397688 0)
(263.486648 0.138518651 0)
(262.225079 -0.0149199631 0)
(262.22755 0.0558503473 0)
(262.223904 0.254131574 0)
(262.192429 0.552373388 0)
(262.119977 0.902789572 0)
(262.002516 1.2562251 0)
(261.842132 1.57211971 0)
(261.644486 1.82116719 0)
(261.418257 1.98420403 0)
(261.174539 2.05218123 0)
(260.925437 2.02605245 0)
(260.682686 1.91397956 0)
(260.456966 1.7272984 0)
(260.257683 1.47924234 0)
(260.092581 1.18800093 0)
(259.966743 0.881145809 0)
(259.881097 0.596495512 0)
(259.831196 0.376636524 0)
(259.807162 0.258763552 0)
(259.795054 0.264453172 0)
(259.779073 0.393618033 0)
(259.744122 0.624537557 0)
(259.678446 0.91942259 0)
(259.575558 1.23317192 0)
(259.434822 1.52221711 0)
(259.26088 1.75111167 0)
(259.062418 1.89590194 0)
(258.850685 1.94452451 0)
(258.638062 1.895248 0)
(258.436874 1.75444747 0)
(258.258509 1.53482894 0)
(258.112721 1.25470451 0)
(258.00693 0.938152071 0)
(257.945392 0.615168952 0)
(257.928238 0.320427371 0)
(257.950123 0.0899753121 0)
(258.002744 -0.0439912532 0)
(258.073533 -0.0624303092 0)
(258.146422 0.0374427016 0)
(258.209092 0.239964381 0)
(258.250501 0.510981045 0)
(258.26257 0.805666642 0)
(258.243456 1.07971706 0)
(258.197483 1.29916095 0)
(258.132742 1.44725631 0)
(258.058571 1.52620115 0)
(257.983164 1.55319923 0)
(257.911859 1.55276867 0)
(257.84656 1.54838198 0)
(257.786221 1.5563691 0)
(257.728001 1.58368256 0)
(257.668532 1.62932151 0)
(257.604856 1.6878408 0)
(257.534854 1.7529858 0)
(257.457214 1.82004961 0)
(257.37116 1.88654725 0)
(257.27616 1.95164861 0)
(257.171755 2.01516112 0)
(257.05752 2.07671261 0)
(256.933121 2.13540514 0)
(256.798395 2.18987067 0)
(256.653403 2.2385068 0)
(256.49845 2.27969745 0)
(256.33408 2.31193231 0)
(256.161057 2.33383465 0)
(255.980344 2.34414704 0)
(255.793086 2.34171685 0)
(255.600595 2.32549773 0)
(255.404331 2.29456303 0)
(255.205888 2.24812106 0)
(255.006978 2.1855248 0)
(254.809406 2.10627402 0)
(254.615059 2.01001137 0)
(254.425887 1.8965154 0)
(254.243885 1.76569248 0)
(254.07108 1.6175693 0)
(253.909521 1.45228723 0)
(253.761273 1.2700994 0)
(253.628413 1.07137105 0)
(253.513031 0.856582625 0)
(253.417211 0.626341549 0)
(253.343043 0.381388152 0)
(253.292779 0.122633202 0)
(253.270199 -0.148610756 0)
(253.277022 -0.430993613 0)
(253.313756 -0.722980468 0)
(253.382216 -1.0227461 0)
(253.483991 -1.3281917 0)
(253.620414 -1.63693544 0)
(253.792507 -1.94630964 0)
(254.000916 -2.25337318 0)
(254.24584 -2.5549461 0)
(254.526974 -2.84766566 0)
(254.843453 -3.12805897 0)
(255.193819 -3.39263007 0)
(255.576007 -3.63795835 0)
(255.987356 -3.86080408 0)
(256.424633 -4.05821581 0)
(256.884102 -4.22763366 0)
(257.361596 -4.36698157 0)
(257.852623 -4.47474259 0)
(258.352483 -4.55001118 0)
(258.856391 -4.59251915 0)
(259.359608 -4.60263384 0)
(259.857563 -4.58132946 0)
(260.345963 -4.53013455 0)
(260.820885 -4.45106003 0)
(261.278856 -4.34651333 0)
(261.716898 -4.21920425 0)
(262.13256 -4.07204829 0)
(262.523922 -3.90807224 0)
(262.88959 -3.73032669 0)
(263.228663 -3.54180798 0)
(263.540696 -3.34539212 0)
(263.825656 -3.14378152 0)
(264.083866 -2.9394647 0)
(264.315947 -2.73468835 0)
(264.522774 -2.53144074 0)
(264.705415 -2.33144512 0)
(264.865088 -2.13616134 0)
(265.003119 -1.94679511 0)
(265.120901 -1.76431294 0)
(265.219866 -1.58946114 0)
(265.301453 -1.42278724 0)
(265.367089 -1.26466271 0)
(265.418168 -1.11530568 0)
(265.456036 -0.974802295 0)
(265.48198 -0.84312717 0)
(265.49722 -0.720163058 0)
(265.502902 -0.60571812 0)
(265.500094 -0.499539771 0)
(265.489789 -0.401327621 0)
(265.472905 -0.310746924 0)
(265.45032 -0.227445637 0)
(265.422879 -0.151082846 0)
(265.391376 -0.0813254629 0)
(265.356705 -0.0181035762 0)
(265.319505 0.0391478155 0)
(265.279492 0.0909155658 0)
(265.237061 0.137469719 0)
(265.192843 0.179040553 0)