/*--------------------------------*- C++ -*----------------------------------*\
| =========                 |                                                 |
| \\      /  F ield         | OpenFOAM: The Open Source CFD Toolbox           |
|  \\    /   O peration     | Version:  v2012                                 |
|   \\  /    A nd           | Website:  www.openfoam.com                      |
|    \\/     M anipulation  |                                                 |
\*---------------------------------------------------------------------------*/
FoamFile
{
    version     2.0;
    format      ascii;
    class       volVectorField;
    location    "2.54";
    object      HbyA;
}
// * * * * * * * * * * * * * * * * * * * * * * * * * * * * * * * * * * * * * //

dimensions      [0 1 -1 0 0 0 0];


internalField   nonuniform List<vector> 
28416
(
(0.10000045 2.30175698e-06 0)
(0.0999999128 1.67321294e-05 0)
(0.0999930631 4.20433721e-05 0)
(0.0999749437 7.52307455e-05 0)
(0.0999430417 0.000112352556 0)
(0.0998971521 0.000149340725 0)
(0.099838447 0.000182317605 0)
(0.099769086 0.000207978429 0)
(0.0996920861 0.000223969377 0)
(0.0996109805 0.000229206894 0)
(0.0995293353 0.000223920994 0)
(0.0994504117 0.000209282055 0)
(0.0993770664 0.000186876043 0)
(0.0993117638 0.000158510538 0)
(0.0992564963 0.000126526022 0)
(0.0992125004 9.42445826e-05 0)
(0.0991798078 6.59740288e-05 0)
(0.0991568972 4.63346565e-05 0)
(0.0991406959 3.90483313e-05 0)
(0.0991268282 4.58464449e-05 0)
(0.0991103087 6.61701852e-05 0)
(0.0990868475 9.73899124e-05 0)
(0.0990538672 0.000135257948 0)
(0.0990105526 0.000174740814 0)
(0.098957513 0.000211002522 0)
(0.0988965823 0.000240076916 0)
(0.0988305244 0.00025914859 0)
(0.0987625207 0.000266638066 0)
(0.0986957284 0.000262195626 0)
(0.098633063 0.000246614807 0)
(0.0985770994 0.000221706076 0)
(0.0985299541 0.000190175661 0)
(0.0984931787 0.000155526366 0)
(0.0984675671 0.000121859791 0)
(0.0984528217 9.35976852e-05 0)
(0.0984474447 7.5007754e-05 0)
(0.0984487972 6.94919014e-05 0)
(0.0984534069 7.90140173e-05 0)
(0.0984576056 0.000103480497 0)
(0.0984581188 0.000140461512 0)
(0.0984525634 0.000185562376 0)
(0.0984398213 0.000233360622 0)
(0.0984201478 0.000278605232 0)
(0.0983949415 0.000317338878 0)
(0.0983662514 0.000347614341 0)
(0.0983361871 0.000369601734 0)
(0.0983064129 0.000385101115 0)
(0.0982778615 0.000396685677 0)
(0.0982507099 0.00040680998 0)
(0.0982245668 0.000417182336 0)
(0.0981987591 0.000428548144 0)
(0.0981725982 0.000440844688 0)
(0.0981455459 0.000453557065 0)
(0.0981172632 0.000466077376 0)
(0.0980875713 0.000477932863 0)
(0.0980563796 0.000488849645 0)
(0.0980236241 0.000498699397 0)
(0.0979892391 0.000507406255 0)
(0.0979531575 0.000514874671 0)
(0.0979153284 0.00052096174 0)
(0.0978757346 0.000525485878 0)
(0.0978344048 0.000528250665 0)
(0.0977914167 0.00052906608 0)
(0.0977468964 0.000527759541 0)
(0.0977010162 0.000524178549 0)
(0.0976539932 0.000518190296 0)
(0.0976060881 0.000509680906 0)
(0.0975576035 0.000498555866 0)
(0.0975088822 0.000484741583 0)
(0.0974603043 0.000468187418 0)
(0.097412284 0.000448867753 0)
(0.097365267 0.000426783889 0)
(0.0973197279 0.00040196549 0)
(0.0972761693 0.000374471188 0)
(0.0972351217 0.000344387525 0)
(0.097197143 0.00031182536 0)
(0.0971628174 0.00027691433 0)
(0.0971327506 0.000239793433 0)
(0.0971075539 0.000200600734 0)
(0.0970878119 0.000159472268 0)
(0.0970740492 0.000116547765 0)
(0.097066716 7.19921196e-05 0)
(0.0970658843 2.60663693e-05 0)
(0.0970720406 -2.03642449e-05 0)
(0.0970867188 -6.70702916e-05 0)
(0.0971106772 -0.000114482949 0)
(0.0971437172 -0.000162508297 0)
(0.0971859075 -0.000210834762 0)
(0.0972374051 -0.000259157702 0)
(0.0972982192 -0.000307138636 0)
(0.0973682648 -0.000354403246 0)
(0.0974473804 -0.000400561209 0)
(0.0975353018 -0.00044520886 0)
(0.0976316573 -0.000487929831 0)
(0.0977359748 -0.000528302139 0)
(0.0978476883 -0.000565909605 0)
(0.0979661455 -0.000600355934 0)
(0.0980906161 -0.000631279882 0)
(0.0982203024 -0.000658369151 0)
(0.0983543483 -0.000681371172 0)
(0.0984918519 -0.000700100064 0)
(0.0986318778 -0.000714439961 0)
(0.0987734731 -0.000724345492 0)
(0.0989156834 -0.000729840229 0)
(0.0990575698 -0.000731013639 0)
(0.0991982249 -0.00072801674 0)
(0.0993367876 -0.000721056506 0)
(0.0994724558 -0.000710389043 0)
(0.0996044967 -0.000696311697 0)
(0.0997322547 -0.000679154366 0)
(0.0998551569 -0.000659270409 0)
(0.0999727156 -0.000637027558 0)
(0.10008453 -0.000612799205 0)
(0.100190283 -0.000586956351 0)
(0.10028974 -0.000559860465 0)
(0.100382743 -0.000531857186 0)
(0.100469206 -0.000503271292 0)
(0.100549101 -0.000474401976 0)
(0.100622452 -0.000445516265 0)
(0.100689333 -0.000416844335 0)
(0.100749867 -0.00038857993 0)
(0.100804228 -0.00036088394 0)
(0.100852631 -0.000333888698 0)
(0.100895322 -0.00030770156 0)
(0.100932566 -0.000282396391 0)
(0.100964658 -0.00025799995 0)
(0.10099195 -0.000234526016 0)
(0.101014806 -0.00021200663 0)
(0.101033567 -0.000190475515 0)
(0.101048552 -0.000169952746 0)
(0.101060058 -0.00015043024 0)
(0.101068375 -0.0001318821 0)
(0.101073793 -0.000114275689 0)
(0.101076606 -9.75770711e-05 0)
(0.101077107 -8.17540043e-05 0)
(0.101075589 -6.67782556e-05 0)
(0.101072354 -5.26328166e-05 0)
(0.101067706 -3.93344355e-05 0)
(0.101061937 -2.69554078e-05 0)
(0.101055287 -1.56389248e-05 0)
(0.10104792 -5.62709276e-06 0)
(0.10103968 2.9659219e-06 0)
(0.101030187 1.03640406e-05 0)
(0.101019404 1.68567508e-05 0)
(0.101007601 2.26038349e-05 0)
(0.100995004 2.76885941e-05 0)
(0.10098175 3.21790556e-05 0)
(0.100967942 3.61388452e-05 0)
(0.100953679 3.96259219e-05 0)
(0.100939057 4.26912535e-05 0)
(0.100924167 4.53781999e-05 0)
(0.100909092 4.77236087e-05 0)
(0.100893905 4.97587438e-05 0)
(0.100878672 5.1509411e-05 0)
(0.10086345 5.299658e-05 0)
(0.10084829 5.42377731e-05 0)
(0.100833232 5.52484888e-05 0)
(0.100818314 5.60432591e-05 0)
(0.100803564 5.66363377e-05 0)
(0.100789006 5.70420459e-05 0)
(0.100774664 5.72748181e-05 0)
(0.100760554 5.7349062e-05 0)
(0.100746693 5.72789443e-05 0)
(0.100733096 5.70781562e-05 0)
(0.100719776 5.67596812e-05 0)
(0.100706744 5.63355859e-05 0)
(0.10069401 5.58168566e-05 0)
(0.100681585 5.52133009e-05 0)
(0.100669477 5.45335193e-05 0)
(0.100657693 5.37849484e-05 0)
(0.100646238 5.2973967e-05 0)
(0.100635118 5.21060549e-05 0)
(0.100624335 5.11859805e-05 0)
(0.100613893 5.02179921e-05 0)
(0.100603793 4.92059916e-05 0)
(0.100594037 4.81536726e-05 0)
(0.100584623 4.70646105e-05 0)
(0.100575553 4.59423053e-05 0)
(0.100566825 4.47901772e-05 0)
(0.100558441 4.36115236e-05 0)
(0.100550399 4.24094495e-05 0)
(0.100542701 4.1186768e-05 0)
(0.100535346 3.99459249e-05 0)
(0.100528336 3.86886852e-05 0)
(0.100521679 3.74167046e-05 0)
(0.100515352 3.61273335e-05 0)
(0.100509461 3.48305985e-05 0)
(0.100503673 3.34632223e-05 0)
(0.100499281 3.22779392e-05 0)
(0.100492212 3.00028984e-05 0)
(0.100000553 1.14177912e-06 0)
(0.100002584 2.28284962e-05 0)
(0.100000825 6.62311443e-05 0)
(0.0999880069 0.000125232679 0)
(0.0999595954 0.000191739627 0)
(0.0999147825 0.000257693766 0)
(0.0998548797 0.00031604384 0)
(0.0997823203 0.000361316763 0)
(0.0997004947 0.000389867511 0)
(0.099613477 0.000400126746 0)
(0.0995254693 0.000392564633 0)
(0.0994403578 0.000369059047 0)
(0.0993615732 0.000332060121 0)
(0.0992921058 0.000284334475 0)
(0.0992344152 0.000229559398 0)
(0.0991900756 0.000173153024 0)
(0.099159265 0.000122367852 0)
(0.0991403115 8.51715469e-05 0)
(0.0991296574 6.82771554e-05 0)
(0.0991224468 7.51666788e-05 0)
(0.099113285 0.000105094727 0)
(0.0990970209 0.000153395418 0)
(0.0990697503 0.000212637083 0)
(0.0990295602 0.000274221104 0)
(0.0989766046 0.00033005559 0)
(0.0989127972 0.000373747708 0)
(0.0988413631 0.000401081644 0)
(0.0987662667 0.000409997912 0)
(0.0986916504 0.00040033448 0)
(0.0986214472 0.000373491259 0)
(0.0985591608 0.000332159168 0)
(0.0985077067 0.00028019413 0)
(0.098469232 0.000222610408 0)
(0.098444888 0.000165471853 0)
(0.098434507 0.000115569056 0)
(0.0984363682 7.97398491e-05 0)
(0.0984473555 6.37274005e-05 0)
(0.0984632308 7.09193932e-05 0)
(0.0984790428 0.00010121657 0)
(0.0984899776 0.000150715228 0)
(0.0984923317 0.000212414809 0)
(0.0984842053 0.000277742794 0)
(0.0984657384 0.000338492336 0)
(0.0984388605 0.000388619439 0)
(0.0984066157 0.000425358625 0)
(0.0983722762 0.000449337241 0)
(0.0983385215 0.000463733405 0)
(0.0983069261 0.000472859254 0)
(0.0982778588 0.000480716619 0)
(0.0982507459 0.000490005775 0)
(0.0982245258 0.00050181563 0)
(0.0981980953 0.000515919088 0)
(0.0981706007 0.000531385463 0)
(0.0981415293 0.000547181057 0)
(0.0981106475 0.000562538834 0)
(0.0980778751 0.000577048343 0)
(0.0980431733 0.000590551149 0)
(0.0980064889 0.000602974538 0)
(0.0979677502 0.000614205663 0)
(0.097926894 0.000624043999 0)
(0.0978838943 0.00063221646 0)
(0.0978387814 0.000638418107 0)
(0.0977916461 0.000642348124 0)
(0.0977426371 0.000643729294 0)
(0.0976919566 0.000642313009 0)
(0.0976398575 0.000637876856 0)
(0.0975866402 0.000630222708 0)
(0.0975326507 0.000619177614 0)
(0.0974782778 0.000604596594 0)
(0.097423951 0.000586365643 0)
(0.0973701364 0.000564403799 0)
(0.0973173334 0.000538663963 0)
(0.0972660709 0.000509132534 0)
(0.0972169041 0.000475828105 0)
(0.0971704102 0.000438799239 0)
(0.0971271843 0.000398121119 0)
(0.0970878331 0.000353891838 0)
(0.097052967 0.000306227856 0)
(0.0970231934 0.000255261152 0)
(0.0969990999 0.000201143493 0)
(0.0969812467 0.000144074616 0)
(0.0969702499 8.43502441e-05 0)
(0.0969670848 2.23400551e-05 0)
(0.0969723468 -4.1518958e-05 0)
(0.096986102 -0.000106723297 0)
(0.0970088748 -0.000173160364 0)
(0.0970412257 -0.000240541581 0)
(0.0970834 -0.000308429706 0)
(0.0971355576 -0.000376369418 0)
(0.0971977811 -0.00044385768 0)
(0.0972700427 -0.000510335631 0)
(0.0973522055 -0.00057521022 0)
(0.0974440179 -0.000637867612 0)
(0.0975451081 -0.00069768467 0)
(0.097654986 -0.00075404424 0)
(0.0977730469 -0.000806351381 0)
(0.0978985782 -0.000854049335 0)
(0.0980307684 -0.000896635155 0)
(0.0981687178 -0.000933674195 0)
(0.0983114526 -0.000964812699 0)
(0.0984579404 -0.000989787936 0)
(0.0986071086 -0.00100843535 0)
(0.0987578647 -0.00102069236 0)
(0.0989091172 -0.00102659867 0)
(0.0990597966 -0.00102629309 0)
(0.0992088748 -0.0010200071 0)
(0.0993553833 -0.00100805582 0)
(0.0994984282 -0.000990826714 0)
(0.0996372019 -0.000968766795 0)
(0.0997709922 -0.000942368998 0)
(0.0998991876 -0.000912158203 0)
(0.10002128 -0.000878677582 0)
(0.100136864 -0.000842475691 0)
(0.100245635 -0.000804094665 0)
(0.100347382 -0.000764059849 0)
(0.100441983 -0.000722870847 0)
(0.100529398 -0.000680994452 0)
(0.100609659 -0.000638858663 0)
(0.100682859 -0.000596845557 0)
(0.100749146 -0.000555286366 0)
(0.100808718 -0.000514460897 0)
(0.100861808 -0.000474599004 0)
(0.100908686 -0.000435884002 0)
(0.100949661 -0.000398457523 0)
(0.100985083 -0.000362419934 0)
(0.101015313 -0.000327828937 0)
(0.10104069 -0.00029472165 0)
(0.101061555 -0.000263135115 0)
(0.101078261 -0.000233097828 0)
(0.101091169 -0.000204623829 0)
(0.101100632 -0.00017772047 0)
(0.101106964 -0.000152374844 0)
(0.101110465 -0.000128552338 0)
(0.101111427 -0.000106207679 0)
(0.101110139 -8.52983845e-05 0)
(0.101106876 -6.58093245e-05 0)
(0.101101888 -4.77332042e-05 0)
(0.101095377 -3.10603236e-05 0)
(0.101087489 -1.57876132e-05 0)
(0.101078268 -1.78459378e-06 0)
(0.101067911 1.08858077e-05 0)
(0.101056795 2.20220911e-05 0)
(0.101045006 3.16921204e-05 0)
(0.101032435 4.01596102e-05 0)
(0.101019113 4.76130916e-05 0)
(0.101005163 5.41562695e-05 0)
(0.100990699 5.98724246e-05 0)
(0.100975813 6.48418518e-05 0)
(0.100960591 6.91394926e-05 0)
(0.100945112 7.28324693e-05 0)
(0.100929451 7.5979179e-05 0)
(0.100913678 7.86310488e-05 0)
(0.100897855 8.08344276e-05 0)
(0.100882036 8.2630863e-05 0)
(0.100866272 8.40571755e-05 0)
(0.100850605 8.51461327e-05 0)
(0.100835075 8.59271713e-05 0)
(0.100819715 8.64268986e-05 0)
(0.100804553 8.66695432e-05 0)
(0.100789614 8.66773948e-05 0)
(0.10077492 8.64711488e-05 0)
(0.100760489 8.60701259e-05 0)
(0.100746336 8.54924036e-05 0)
(0.100732475 8.4754885e-05 0)
(0.100718916 8.38733224e-05 0)
(0.10070567 8.28623104e-05 0)
(0.100692744 8.17352733e-05 0)
(0.100680147 8.05044607e-05 0)
(0.100667883 7.91809646e-05 0)
(0.100655958 7.77747596e-05 0)
(0.100644376 7.62947671e-05 0)
(0.10063314 7.47489408e-05 0)
(0.100622253 7.31443661e-05 0)
(0.100611715 7.14873636e-05 0)
(0.100601527 6.97835901e-05 0)
(0.100591691 6.80381289e-05 0)
(0.100582206 6.62555604e-05 0)
(0.100573071 6.44400126e-05 0)
(0.100564286 6.25951861e-05 0)
(0.10055585 6.07243521e-05 0)
(0.100547763 5.88303254e-05 0)
(0.100540025 5.69153917e-05 0)
(0.100532634 5.49812541e-05 0)
(0.10052559 5.302862e-05 0)
(0.100518901 5.10580926e-05 0)
(0.100512537 4.90641155e-05 0)
(0.100506604 4.70610481e-05 0)
(0.100500734 4.49555592e-05 0)
(0.100496265 4.313808e-05 0)
(0.100488811 3.97427473e-05 0)
(0.100000574 -9.23024296e-07 0)
(0.100001508 1.92291408e-05 0)
(0.0999977112 6.56365896e-05 0)
(0.099983215 0.000131786095 0)
(0.0999540024 0.000207811418 0)
(0.0999091308 0.000283731401 0)
(0.0998497162 0.000351084509 0)
(0.0997780143 0.000403570094 0)
(0.0996972008 0.000437067973 0)
(0.0996111365 0.000449765816 0)
(0.099523863 0.000442117661 0)
(0.0994391642 0.000416153944 0)
(0.0993604024 0.000374536348 0)
(0.0992905146 0.00032027183 0)
(0.0992319369 0.000257414401 0)
(0.0991863001 0.00019205385 0)
(0.0991539222 0.000132474753 0)
(0.0991333718 8.78835044e-05 0)
(0.0991213203 6.61546115e-05 0)
(0.0991128083 7.16138018e-05 0)
(0.0991021897 0.000103777175 0)
(0.0990844425 0.000157519514 0)
(0.0990560816 0.000224426384 0)
(0.0990154891 0.000294672082 0)
(0.0989628809 0.000358855067 0)
(0.0989000535 0.000409379108 0)
(0.098829988 0.000441146854 0)
(0.0987563672 0.000451631734 0)
(0.0986831031 0.000440575021 0)
(0.0986139785 0.000409552321 0)
(0.0985524104 0.00036160718 0)
(0.0985012664 0.000301071753 0)
(0.0984626748 0.000233550879 0)
(0.0984377992 0.000165880243 0)
(0.0984265856 0.000105784252 0)
(0.0984275832 6.1085248e-05 0)
(0.0984378914 3.83972547e-05 0)
(0.0984533027 4.16190221e-05 0)
(0.0984689497 7.09202191e-05 0)
(0.0984802675 0.000122395622 0)
(0.0984837642 0.000188441663 0)
(0.0984775412 0.000259293444 0)
(0.0984615322 0.000325294321 0)
(0.0984373438 0.000379124657 0)
(0.0984076922 0.000417278464 0)
(0.0983756035 0.000440343871 0)
(0.0983436412 0.000452082512 0)
(0.0983133912 0.000457737092 0)
(0.0982853236 0.000462241413 0)
(0.098258998 0.000468954731 0)
(0.0982334647 0.000479236916 0)
(0.09820768 0.000492793017 0)
(0.0981807922 0.000508435615 0)
(0.0981522501 0.000524848123 0)
(0.0981217646 0.000541062592 0)
(0.0980892031 0.000556580456 0)
(0.0980544882 0.000571239591 0)
(0.0980175427 0.000584997241 0)
(0.0979782819 0.00059776271 0)
(0.0979366352 0.000609331539 0)
(0.0978925734 0.000619402553 0)
(0.0978461263 0.000627629732 0)
(0.0977973901 0.00063366869 0)
(0.0977465254 0.000637201448 0)
(0.0976937517 0.000637941931 0)
(0.0976393418 0.000635631838 0)
(0.097583619 0.000630037057 0)
(0.097526955 0.000620947828 0)
(0.0974697664 0.000608181648 0)
(0.0974125111 0.000591586825 0)
(0.0973556836 0.000571045302 0)
(0.0972998106 0.000546474336 0)
(0.097245447 0.00051782724 0)
(0.097193172 0.000485093379 0)
(0.0971435869 0.000448297637 0)
(0.0970973112 0.000407499472 0)
(0.0970549798 0.000362791668 0)
(0.0970172389 0.000314300294 0)
(0.0969847422 0.000262186515 0)
(0.0969581554 0.000206648532 0)
(0.0969381668 0.000147936649 0)
(0.0969253944 8.63371435e-05 0)
(0.0969199959 2.21077452e-05 0)
(0.0969225312 -4.4563706e-05 0)
(0.0969341537 -0.000113353337 0)
(0.0969554198 -0.000183838279 0)
(0.0969865611 -0.000255640902 0)
(0.0970278814 -0.000328306573 0)
(0.0970796341 -0.000401304769 0)
(0.0971419512 -0.000474053559 0)
(0.0972148486 -0.000545921602 0)
(0.0972982267 -0.000616237184 0)
(0.09739186 -0.000684300311 0)
(0.0974953902 -0.000749394992 0)
(0.0976083251 -0.000810804911 0)
(0.0977300403 -0.00086783225 0)
(0.0978597842 -0.000919818275 0)
(0.0979966871 -0.000966164414 0)
(0.0981397737 -0.00100635207 0)
(0.0982879803 -0.00103995957 0)
(0.0984401745 -0.00106667514 0)
(0.0985951778 -0.00108630531 0)
(0.0987517903 -0.00109877872 0)
(0.0989088152 -0.00110414556 0)
(0.0990650836 -0.00110257286 0)
(0.0992194771 -0.00109433626 0)
(0.0993709479 -0.00107980858 0)
(0.0995185358 -0.00105944592 0)
(0.0996613817 -0.0010337719 0)
(0.0997987367 -0.00100336089 0)
(0.0999299679 -0.000968821025 0)
(0.10005456 -0.000930777667 0)
(0.100172113 -0.000889858029 0)
(0.100282339 -0.00084667731 0)
(0.100385055 -0.000801826765 0)
(0.100480175 -0.000755863837 0)
(0.100567697 -0.000709304376 0)
(0.100647696 -0.000662616918 0)
(0.100720312 -0.000616218549 0)
(0.10078574 -0.000570472459 0)
(0.100844225 -0.00052568726 0)
(0.100896055 -0.000482117247 0)
(0.100941548 -0.000439964554 0)
(0.100981051 -0.0003993834 0)
(0.101014925 -0.000360491426 0)
(0.101043542 -0.000323384176 0)
(0.101067277 -0.000288126101 0)
(0.101086505 -0.00025474537 0)
(0.101101594 -0.000223246559 0)
(0.101112888 -0.000193619659 0)
(0.101120716 -0.000165853048 0)
(0.101125414 -0.000139921491 0)
(0.101127313 -0.00011578246 0)
(0.101126712 -9.33819061e-05 0)
(0.101123872 -7.26567594e-05 0)
(0.101119046 -5.35206561e-05 0)
(0.101112526 -3.58943351e-05 0)
(0.101104614 -1.96910891e-05 0)
(0.101095741 -4.88761987e-06 0)
(0.101086071 8.44984991e-06 0)
(0.101075386 2.05593666e-05 0)
(0.101063678 3.15047843e-05 0)
(0.101051103 4.12321536e-05 0)
(0.101037762 4.98022115e-05 0)
(0.101023737 5.73339802e-05 0)
(0.101009135 6.392928e-05 0)
(0.100994064 6.96724452e-05 0)
(0.10097862 7.46413841e-05 0)
(0.100962884 7.89096032e-05 0)
(0.100946934 8.25454822e-05 0)
(0.100930844 8.5610655e-05 0)
(0.100914681 8.81595256e-05 0)
(0.100898508 9.02401926e-05 0)
(0.100882379 9.18952689e-05 0)
(0.100866342 9.31625066e-05 0)
(0.100850438 9.40757033e-05 0)
(0.100834702 9.46656328e-05 0)
(0.100819163 9.49606947e-05 0)
(0.100803846 9.49873265e-05 0)
(0.100788771 9.47702682e-05 0)
(0.100773958 9.43326961e-05 0)
(0.10075942 9.36962571e-05 0)
(0.100745171 9.2881069e-05 0)
(0.100731224 9.19057177e-05 0)
(0.100717588 9.07872575e-05 0)
(0.100704273 8.95412178e-05 0)
(0.100691287 8.81816264e-05 0)
(0.100678635 8.67210558e-05 0)
(0.100666325 8.51706974e-05 0)
(0.10065436 8.35404602e-05 0)
(0.100642745 8.18390904e-05 0)
(0.100631481 8.00743073e-05 0)
(0.100620571 7.82529459e-05 0)
(0.100610014 7.63810948e-05 0)
(0.100599813 7.44642188e-05 0)
(0.100589965 7.25072582e-05 0)
(0.100580471 7.05146956e-05 0)
(0.100571329 6.84905923e-05 0)
(0.100562538 6.64385948e-05 0)
(0.100554098 6.43619137e-05 0)
(0.100546005 6.2263281e-05 0)
(0.100538261 6.01448728e-05 0)
(0.100530864 5.80082742e-05 0)
(0.10052381 5.58540922e-05 0)
(0.100517109 5.36831223e-05 0)
(0.10051073 5.14898626e-05 0)
(0.100504778 4.92925441e-05 0)
(0.100498897 4.69916365e-05 0)
(0.100494417 4.50261593e-05 0)
(0.100487107 4.13833144e-05 0)
(0.1000006 -1.64764719e-06 0)
(0.100002619 2.30803294e-05 0)
(0.100000918 8.20699998e-05 0)
(0.0999884409 0.000167164724 0)
(0.0999604636 0.000265495424 0)
(0.0999157948 0.00036394751 0)
(0.0998554695 0.000451476288 0)
(0.0997817924 0.000519928239 0)
(0.0996981082 0.000563984663 0)
(0.0996085535 0.000581270283 0)
(0.0995175348 0.000572296512 0)
(0.0994292497 0.0005396033 0)
(0.0993474707 0.000486563023 0)
(0.0992754879 0.000416999116 0)
(0.0992159763 0.000336065707 0)
(0.0991706332 0.000251514486 0)
(0.0991396495 0.000173918761 0)
(0.0991212758 0.000115131095 0)
(0.0991118531 8.53803192e-05 0)
(0.0991063751 9.03566582e-05 0)
(0.0990992163 0.000129600724 0)
(0.0990849444 0.000196672882 0)
(0.0990593091 0.000280825883 0)
(0.0990200255 0.000369459241 0)
(0.0989670011 0.000450538929 0)
(0.098902096 0.000514373294 0)
(0.0988286251 0.000554488263 0)
(0.0987507611 0.000567695025 0)
(0.0986729802 0.000553657222 0)
(0.0985996413 0.000514300929 0)
(0.0985347006 0.000453345129 0)
(0.0984814946 0.000376100568 0)
(0.0984425101 0.00028949061 0)
(0.0984190977 0.000202044774 0)
(0.0984111382 0.00012353437 0)
(0.0984167759 6.3989239e-05 0)
(0.098432521 3.21731801e-05 0)
(0.0984538073 3.35158019e-05 0)
(0.0984756182 6.84260903e-05 0)
(0.0984929241 0.00013178353 0)
(0.098501497 0.00021360271 0)
(0.0984989418 0.000301348155 0)
(0.098485101 0.00038277586 0)
(0.0984618063 0.000448661383 0)
(0.0984321688 0.000494621159 0)
(0.0983996449 0.000521447736 0)
(0.0983671624 0.00053394461 0)
(0.0983365446 0.000538793518 0)
(0.098308356 0.000542294637 0)
(0.09828213 0.000548759718 0)
(0.0982568153 0.000559961904 0)
(0.0982312376 0.000575560417 0)
(0.0982044232 0.000594061658 0)
(0.0981757249 0.000613789984 0)
(0.0981447873 0.000633502048 0)
(0.0981114335 0.000652549227 0)
(0.0980755557 0.00067071543 0)
(0.0980370525 0.000687943839 0)
(0.09799582 0.000704123195 0)
(0.0979517736 0.000719001233 0)
(0.0979048765 0.000732203478 0)
(0.0978551591 0.000743297337 0)
(0.0978027257 0.000751850301 0)
(0.0977477521 0.000757460173 0)
(0.0976904796 0.00075976123 0)
(0.0976312096 0.000758420631 0)
(0.097570299 0.000753134898 0)
(0.0975081574 0.000743630606 0)
(0.0974452429 0.000729668323 0)
(0.0973820585 0.000711047009 0)
(0.0973191475 0.000687606978 0)
(0.0972570888 0.000659230898 0)
(0.0971964917 0.000625843234 0)
(0.0971379912 0.000587408862 0)
(0.0970822427 0.000543931382 0)
(0.0970299171 0.00049545146 0)
(0.0969816959 0.000442045575 0)
(0.0969382663 0.000383825419 0)
(0.0969003167 0.000320937502 0)
(0.0968685338 0.000253563182 0)
(0.0968435792 0.000181910637 0)
(0.0968260942 0.00010620843 0)
(0.0968169813 2.6777281e-05 0)
(0.0968169458 -5.57404269e-05 0)
(0.0968263294 -0.000140893782 0)
(0.096845697 -0.000228309412 0)
(0.0968756186 -0.000317460202 0)
(0.0969164958 -0.000407729788 0)
(0.0969686267 -0.000498444647 0)
(0.0970322101 -0.000588864532 0)
(0.097107324 -0.000678182866 0)
(0.0971939122 -0.000765540639 0)
(0.0972917722 -0.00085004346 0)
(0.0974005465 -0.00093078034 0)
(0.0975197179 -0.00100684559 0)
(0.09764861 -0.00107736263 0)
(0.0977863925 -0.00114150832 0)
(0.097932092 -0.00119853722 0)
(0.0980846081 -0.00124780438 0)
(0.0982427335 -0.0012887858 0)
(0.0984051786 -0.00132109517 0)
(0.0985706001 -0.0013444957 0)
(0.0987376296 -0.00135890643 0)
(0.0989049054 -0.0013644025 0)
(0.0990711019 -0.00136120947 0)
(0.0992349571 -0.00134969232 0)
(0.0993952975 -0.00133033992 0)
(0.0995510578 -0.00130374612 0)
(0.0997012963 -0.00127058857 0)
(0.0998452047 -0.00123160647 0)
(0.0999821139 -0.00118757827 0)
(0.100111494 -0.00113930031 0)
(0.100232951 -0.00108756721 0)
(0.100346221 -0.00103315438 0)
(0.100451158 -0.00097680329 0)
(0.100547728 -0.000919209385 0)
(0.10063599 -0.000861012791 0)
(0.100716086 -0.000802791584 0)
(0.100788232 -0.000745057149 0)
(0.100852698 -0.000688251834 0)
(0.100909804 -0.00063274968 0)
(0.100959906 -0.000578859614 0)
(0.101003388 -0.000526829888 0)
(0.101040654 -0.000476853279 0)
(0.101072121 -0.000429072672 0)
(0.101098211 -0.000383586865 0)
(0.10111934 -0.00034045555 0)
(0.101135917 -0.000299706113 0)
(0.101148339 -0.000261340186 0)
(0.101156986 -0.000225335208 0)
(0.101162227 -0.000191637205 0)
(0.101164413 -0.000160175941 0)
(0.101163877 -0.000130874098 0)
(0.101160934 -0.000103648753 0)
(0.101155911 -7.84116947e-05 0)
(0.101149101 -5.50630425e-05 0)
(0.101140755 -3.35247405e-05 0)
(0.10113101 -1.37859411e-05 0)
(0.101119836 4.2072892e-06 0)
(0.101107523 2.03590697e-05 0)
(0.101094418 3.47292351e-05 0)
(0.101080564 4.74941498e-05 0)
(0.101066045 5.87855914e-05 0)
(0.101050949 6.87178093e-05 0)
(0.101035357 7.74163555e-05 0)
(0.10101935 8.50002027e-05 0)
(0.101003015 9.15727109e-05 0)
(0.100986434 9.72259991e-05 0)
(0.100969679 0.000102044854 0)
(0.100952816 0.000106107663 0)
(0.100935905 0.000109486045 0)
(0.100919001 0.000112244996 0)
(0.10090215 0.000114443713 0)
(0.100885396 0.000116136002 0)
(0.100868778 0.000117370278 0)
(0.100852333 0.000118189848 0)
(0.100836092 0.000118633517 0)
(0.100820083 0.000118736225 0)
(0.100804333 0.000118529609 0)
(0.100788861 0.000118042533 0)
(0.100773685 0.000117301534 0)
(0.100758819 0.000116331132 0)
(0.100744277 0.000115154027 0)
(0.100730067 0.000113791226 0)
(0.100716197 0.000112262122 0)
(0.100702673 0.000110584556 0)
(0.100689501 0.000108774867 0)
(0.100676684 0.000106847946 0)
(0.100664226 0.000104817298 0)
(0.100652127 0.00010269511 0)
(0.10064039 0.000100492333 0)
(0.100629017 9.82187627e-05 0)
(0.100618006 9.58831251e-05 0)
(0.100607358 9.34931629e-05 0)
(0.100597073 9.1055718e-05 0)
(0.100587149 8.85768125e-05 0)
(0.100577587 8.60617213e-05 0)
(0.100568383 8.35150363e-05 0)
(0.100559538 8.09407162e-05 0)
(0.100551048 7.8342115e-05 0)
(0.100542913 7.57219937e-05 0)
(0.100535131 7.30824944e-05 0)
(0.100527699 7.04251736e-05 0)
(0.100520615 6.77506122e-05 0)
(0.100513884 6.50599449e-05 0)
(0.100507474 6.23470001e-05 0)
(0.100501489 5.96350926e-05 0)
(0.100495555 5.68035074e-05 0)
(0.100491029 5.43903544e-05 0)
(0.100483472 4.99273262e-05 0)
(0.10000062 -4.20204908e-06 0)
(0.10000251 2.08173858e-05 0)
(0.100000482 8.72463751e-05 0)
(0.0999877136 0.000185523514 0)
(0.0999594832 0.0003001104 0)
(0.0999145144 0.000415199625 0)
(0.0998538326 0.00051773388 0)
(0.0997797235 0.00059826731 0)
(0.0996954876 0.000650663533 0)
(0.0996052169 0.000672100831 0)
(0.0995132861 0.000663005644 0)
(0.0994238761 0.000626111391 0)
(0.0993407563 0.000565131513 0)
(0.0992672343 0.000484351493 0)
(0.0992060417 0.000389654894 0)
(0.0991589957 0.000290003052 0)
(0.0991264987 0.000197736173 0)
(0.0991070714 0.000126788329 0)
(0.0990971521 8.93482003e-05 0)
(0.099091444 9.24020332e-05 0)
(0.0990839236 0.000135682495 0)
(0.0990691118 0.000211805928 0)
(0.0990429991 0.000308275036 0)
(0.0990034941 0.000410383585 0)
(0.0989505253 0.000504049263 0)
(0.0988858461 0.000577888403 0)
(0.098812616 0.000624254479 0)
(0.0987348735 0.000639340358 0)
(0.0986570227 0.000622673981 0)
(0.0985834143 0.000576407587 0)
(0.0985180387 0.000504748673 0)
(0.0984642826 0.000413724192 0)
(0.0984246888 0.00031123173 0)
(0.0984007024 0.00020707725 0)
(0.0983924178 0.000112588626 0)
(0.098398492 3.94722898e-05 0)
(0.0984158727 -2.26889167e-06 0)
(0.098439698 -6.06159992e-06 0)
(0.0984642784 2.90593571e-05 0)
(0.0984841558 9.70916357e-05 0)
(0.0984951541 0.000186994609 0)
(0.0984951145 0.000284431309 0)
(0.09848388 0.000374946154 0)
(0.0984631497 0.000447485386 0)
(0.0984359212 0.000496679533 0)
(0.0984056079 0.000523333593 0)
(0.0983751577 0.000533111673 0)
(0.0983464451 0.000534011735 0)
(0.0983200788 0.000533640043 0)
(0.0982956057 0.000537242864 0)
(0.0982719519 0.000547005894 0)
(0.0982478941 0.000562542055 0)
(0.0982223983 0.000582046342 0)
(0.0981947581 0.000603478057 0)
(0.0981645666 0.000625318184 0)
(0.0981316043 0.000646776879 0)
(0.0980957281 0.000667600454 0)
(0.098056808 0.000687737248 0)
(0.0980147168 0.000707072883 0)
(0.0979693534 0.000725320541 0)
(0.0979206719 0.000742041532 0)
(0.0978687021 0.000756723066 0)
(0.0978135563 0.000768849931 0)
(0.097755427 0.00077794258 0)
(0.0976945802 0.000783565322 0)
(0.0976313498 0.000785321134 0)
(0.0975661319 0.000782846507 0)
(0.0974993808 0.000775811513 0)
(0.0974316027 0.000763923901 0)
(0.0973633505 0.000746933994 0)
(0.0972952159 0.000724638172 0)
(0.0972278231 0.0006968804 0)
(0.0971618231 0.000663552224 0)
(0.0970978884 0.000624591913 0)
(0.0970367097 0.000579983129 0)
(0.0969789929 0.000529753393 0)
(0.0969254569 0.000473972646 0)
(0.0968768304 0.000412752396 0)
(0.0968338489 0.000346246043 0)
(0.0967972516 0.00027465152 0)
(0.0967677808 0.000198213285 0)
(0.0967461717 0.000117239417 0)
(0.0967330277 3.20979796e-05 0)
(0.0967290292 -5.69649051e-05 0)
(0.0967350095 -0.000149504829 0)
(0.0967516299 -0.000244973718 0)
(0.0967794253 -0.00034279304 0)
(0.0968188842 -0.00044229372 0)
(0.0968704085 -0.000542707884 0)
(0.0969342825 -0.000643179486 0)
(0.0970106569 -0.000742772194 0)
(0.0970995338 -0.000840480436 0)
(0.0972007512 -0.00093524579 0)
(0.0973139698 -0.00102597831 0)
(0.0974386638 -0.00111158296 0)
(0.0975741183 -0.00119099013 0)
(0.0977194323 -0.00126318862 0)
(0.0978735296 -0.00132725892 0)
(0.0980351763 -0.00138240459 0)
(0.0982030061 -0.00142797958 0)
(0.098375551 -0.00146350994 0)
(0.0985512769 -0.00148870848 0)
(0.0987286212 -0.00150348197 0)
(0.0989060314 -0.00150793058 0)
(0.0990820025 -0.00150233979 0)
(0.0992551107 -0.00148716559 0)
(0.0994240425 -0.00146301405 0)
(0.0995876186 -0.00143061656 0)
(0.0997448112 -0.00139080242 0)
(0.0998947541 -0.00134447024 0)
(0.100036748 -0.00129255966 0)
(0.100170258 -0.00123602469 0)
(0.10029491 -0.00117580947 0)
(0.100410476 -0.00111282736 0)
(0.100516867 -0.00104794353 0)
(0.100614113 -0.000981961438 0)
(0.10070235 -0.000915612819 0)
(0.100781802 -0.00084955123 0)
(0.100852766 -0.000784348651 0)
(0.100915597 -0.000720494782 0)
(0.100970695 -0.00065839885 0)
(0.101018493 -0.000598393343 0)
(0.101059446 -0.000540739216 0)
(0.101094021 -0.000485632362 0)
(0.101122689 -0.000433211221 0)
(0.101145918 -0.000383564798 0)
(0.101164165 -0.000336739047 0)
(0.101177874 -0.00029274234 0)
(0.10118747 -0.000251551479 0)
(0.10119336 -0.000213117397 0)
(0.101195929 -0.000177370765 0)
(0.101195541 -0.000144229546 0)
(0.101192539 -0.000113603157 0)
(0.101187238 -8.53947196e-05 0)
(0.101179915 -5.95001766e-05 0)
(0.101170813 -3.58257391e-05 0)
(0.101160121 -1.42618711e-05 0)
(0.101148113 5.33815154e-06 0)
(0.101135098 2.30628599e-05 0)
(0.101121247 3.90983511e-05 0)
(0.101106656 5.34643925e-05 0)
(0.101091399 6.6252961e-05 0)
(0.101075559 7.75701243e-05 0)
(0.101059229 8.75164937e-05 0)
(0.101042498 9.6198085e-05 0)
(0.101025446 0.000103721524 0)
(0.101008152 0.000110187043 0)
(0.100990687 0.000115687815 0)
(0.100973119 0.00012031074 0)
(0.100955509 0.000124136558 0)
(0.100937917 0.000127239645 0)
(0.100920395 0.00012968799 0)
(0.100902993 0.000131543696 0)
(0.100885753 0.000132863699 0)
(0.100868711 0.000133700307 0)
(0.100851896 0.000134101494 0)
(0.100835334 0.000134111096 0)
(0.100819045 0.00013376901 0)
(0.100803048 0.000133111439 0)
(0.100787358 0.000132171189 0)
(0.100771987 0.000130977968 0)
(0.100756946 0.00012955868 0)