/*--------------------------------*- C++ -*----------------------------------*\
| =========                 |                                                 |
| \\      /  F ield         | OpenFOAM: The Open Source CFD Toolbox           |
|  \\    /   O peration     | Version:  v2012                                 |
|   \\  /    A nd           | Website:  www.openfoam.com                      |
|    \\/     M anipulation  |                                                 |
\*---------------------------------------------------------------------------*/
FoamFile
{
    version     2.0;
    format      ascii;
    class       volScalarField;
    location    "2.54";
    object      p;
}
// * * * * * * * * * * * * * * * * * * * * * * * * * * * * * * * * * * * * * //

dimensions      [0 2 -2 0 0 0 0];


internalField   nonuniform List<scalar> 
28416
(
0.00716884466
0.00716840177
0.00716736358
0.00716571187
0.0071633954
0.00716033115
0.00715647556
0.00715181604
0.00714633681
0.00714001813
0.00713285153
0.00712484387
0.00711601182
0.00710637804
0.00709597165
0.0070848292
0.00707299295
0.00706050492
0.00704739989
0.00703370295
0.00701943068
0.00700457658
0.00698910485
0.00697298626
0.00695622335
0.00693883469
0.00692083751
0.00690225249
0.0068831109
0.00686345161
0.00684331661
0.00682275106
0.0068018068
0.00678055737
0.00675906461
0.00673738118
0.0067155285
0.0066935254
0.00667140108
0.00664919393
0.00662694588
0.0066046974
0.0065824843
0.00656033711
0.00653828176
0.00651634018
0.00649453041
0.00647286647
0.0064513581
0.0064300106
0.00640882467
0.00638779641
0.00636691726
0.00634617407
0.00632554929
0.00630502129
0.00628456482
0.00626415143
0.00624375008
0.00622332765
0.00620284953
0.00618228006
0.00616158309
0.00614072235
0.00611966206
0.00609836749
0.00607680532
0.00605494399
0.00603275396
0.00601020781
0.00598728032
0.00596394832
0.00594019056
0.00591598732
0.00589132005
0.00586617091
0.00584052223
0.00581435617
0.00578765479
0.0057604006
0.00573257664
0.00570416953
0.00567516545
0.00564551203
0.00561533865
0.00558449335
0.00555297891
0.00552078422
0.0054878745
0.00545422317
0.0054198077
0.00538460385
0.00534858778
0.0053117373
0.00527403182
0.00523545284
0.00519598468
0.00515561501
0.00511433534
0.00507214157
0.00502903428
0.00498501901
0.00494010639
0.0048943121
0.00484765671
0.00480016541
0.00475186759
0.00470279636
0.00465298795
0.00460248111
0.00455131644
0.00449953574
0.00444718141
0.00439429579
0.00434092066
0.00428709668
0.00423286291
0.00417825628
0.00412331084
0.00406805657
0.0040125192
0.00395672171
0.00390068704
0.00384444092
0.00378801404
0.00373143814
0.00367473915
0.00361793453
0.0035610385
0.00350406371
0.00344702149
0.00338992164
0.00333277069
0.00327557156
0.00321832466
0.00316102893
0.00310368199
0.00304628147
0.00298882834
0.00293132718
0.00287378505
0.00281619123
0.00275858807
0.00270100509
0.00264341947
0.00258581305
0.0025281827
0.00247052915
0.00241285189
0.00235514951
0.00229742063
0.0022396645
0.00218188088
0.00212406984
0.00206623159
0.00200836657
0.0019504754
0.00189255871
0.00183461715
0.00177665138
0.00171866199
0.00166064957
0.00160261465
0.00154455774
0.00148647937
0.00142838006
0.00137026035
0.00131212081
0.00125396202
0.00119578461
0.00113758921
0.00107937647
0.00102114709
0.000962901734
0.000904641089
0.000846365848
0.000788076681
0.000729774244
0.000671459183
0.000613132118
0.000554793629
0.000496444247
0.000438084483
0.00037971469
0.000321335332
0.000262945951
0.000204548397
0.000146134431
8.77248141e-05
2.92114888e-05
0.00716870506
0.00716825494
0.00716696481
0.00716497388
0.00716233927
0.00715899074
0.00715488051
0.00715001121
0.00714438387
0.00713798372
0.00713079946
0.00712283309
0.0071140952
0.0071045999
0.00709436397
0.00708340635
0.00707174604
0.00705940153
0.00704639046
0.00703272672
0.00701841992
0.00700348359
0.00698793193
0.00697176935
0.0069550005
0.00693763906
0.00691970261
0.00690121062
0.00688218887
0.00686267062
0.00684269424
0.00682230227
0.00680154199
0.00678046557
0.00675912267
0.00673755165
0.00671579617
0.00669388382
0.00667184852
0.00664973221
0.00662757637
0.00660541668
0.00658328705
0.00656121905
0.0065392404
0.0065173743
0.00649563924
0.00647404886
0.006452612
0.00643133281
0.00641021082
0.00638924094
0.00636841356
0.00634771463
0.00632712586
0.00630662506
0.00628618654
0.0062657816
0.00624537908
0.00622494589
0.00620444757
0.0061838488
0.00616311387
0.00614220687
0.00612109315
0.00609973953
0.00607811448
0.00605618837
0.00603393363
0.00601132479
0.00598833851
0.00596495347
0.00594115015
0.00591691064
0.00589221836
0.00586705765
0.00584141351
0.00581527128
0.00578861632
0.00576143398
0.00573371008
0.00570542715
0.00567655653
0.00564713111
0.00561710707
0.00558647894
0.00555519942
0.0055232474
0.00549060018
0.00545722843
0.00542310318
0.00538819542
0.00535247589
0.0053159162
0.00527848944
0.0052401709
0.00520093883
0.00516077529
0.00511966677
0.00507760494
0.00503458708
0.00499061646
0.00494570258
0.0048998611
0.0048531137
0.00480548771
0.00475701556
0.00470773417
0.00465768421
0.00460690927
0.00455545501
0.00450336838
0.00445069682
0.00439748748
0.00434378657
0.00428963876
0.00423508666
0.00418017033
0.0041249269
0.00406939022
0.00401359073
0.00395755611
0.00390131224
0.00384488431
0.00378829799
0.00373157769
0.00367474309
0.0036178129
0.00356080189
0.00350372096
0.0034465768
0.00338937768
0.00333213135
0.00327484318
0.00321751617
0.00316015113
0.00310274814
0.00304530754
0.00298783199
0.00293034444
0.00287285166
0.00281533113
0.00275776218
0.0027001745
0.00264257827
0.00258496702
0.00252733597
0.00246968405
0.00241201078
0.00235431527
0.00229659644
0.00223885343
0.00218108573
0.00212329303
0.0020654751
0.0020076319
0.00194976352
0.00189187015
0.00183395208
0.00177600969
0.00171804342
0.00166005373
0.00160204112
0.00154400611
0.00148594922
0.00142787102
0.00136977208
0.00131165298
0.00125351432
0.00119535673
0.00113718084
0.00107898732
0.00102077683
0.000962550051
0.000904307665
0.000846050374
0.000787778861
0.000729493807
0.000671195896
0.000612885795
0.000554564146
0.000496231563
0.000437888665
0.00037953596
0.000321174159
0.000262803183
0.00020442574
0.000146034726
8.7655322e-05
2.91795268e-05
0.00717081448
0.00717017684
0.00716890498
0.00716698404
0.00716441028
0.0071611192
0.00715706112
0.00715222953
0.00714662311
0.00714022931
0.00713303859
0.00712505355
0.00711628471
0.00710674573
0.00709645329
0.00708542825
0.00707369553
0.00706128134
0.00704820999
0.00703450044
0.00702016585
0.00700520998
0.00698962612
0.00697341156
0.00695657538
0.00693913594
0.00692111549
0.00690253804
0.00688343155
0.00686382929
0.00684376919
0.00682329332
0.00680244776
0.00678128136
0.00675984118
0.00673816945
0.00671630872
0.00669430234
0.00667219314
0.00665001631
0.00662780608
0.00660559961
0.00658343111
0.00656133067
0.00653932461
0.00651743601
0.00649568476
0.00647408695
0.00645265399
0.00643139201
0.00641030147
0.00638937723
0.00636860874
0.00634798046
0.00632747231
0.00630706004
0.00628671579
0.00626640856
0.00624610484
0.00622576925
0.00620536518
0.00618485555
0.00616420348
0.00614337317
0.0061223295
0.00610103865
0.00607946862
0.00605758963
0.00603537422
0.00601279745
0.00598983678
0.00596647202
0.00594268503
0.00591845948
0.00589378044
0.00586863402
0.00584300697
0.00581688642
0.00579025946
0.00576311262
0.00573543134
0.00570720471
0.00567843076
0.0056490715
0.00561914462
0.00558860294
0.00555743124
0.0055256025
0.00549308494
0.00545984804
0.00542586114
0.00539109248
0.00535550989
0.00531908176
0.00528177779
0.00524356977
0.00520443263
0.00516434526
0.00512329144
0.00508126058
0.00503824836
0.00499425712
0.00494929615
0.00490338163
0.00485653646
0.00480878978
0.00476017638
0.00471073593
0.00466051213
0.00460955175
0.0045579037
0.00450561804
0.00445274516
0.00439933493
0.00434543596
0.00429109501
0.00423635647
0.00418126194
0.00412584989
0.00407015547
0.0040142106
0.00395804433
0.00390168365
0.003845154
0.00378847964
0.00373168312
0.00367478393
0.00361779848
0.00356074025
0.00350362109
0.00344645298
0.00338924246
0.00333199302
0.00327470774
0.00321739136
0.00316004973
0.00310267722
0.00304526431
0.00298779455
0.00293031708
0.00287277627
0.00281523169
0.00275767238
0.00270009573
0.00264250494
0.00258489822
0.00252727214
0.00246962489
0.00241195561
0.00235426342
0.00229654727
0.00223880627
0.0021810399
0.00212324794
0.0020654304
0.00200758744
0.00194971936
0.00189182652
0.00183390929
0.00177596809
0.0017180033
0.00166001534
0.00160200461
0.00154397156
0.00148591665
0.00142784038
0.00136974327
0.00131162589
0.00125348883
0.00119533272
0.00113715822
0.00107896599
0.00102075673
0.000962531153
0.000904289955
0.000846033864
0.000787763586
0.000729479825
0.000671183287
0.00061287467
0.000554554648
0.000496223884
0.000437883059
0.000379532769
0.000321173828
0.000262806266
0.000204432756
0.000146045818
8.76684345e-05
2.91892904e-05
0.00717264365
0.0071719389
0.00717051728
0.00716840437
0.00716564355
0.00716217927
0.00715796737
0.00715300803
0.00714730446
0.00714084556
0.00713362006
0.00712562722
0.00711687427
0.00710737187
0.00709713298
0.00708617247
0.00707450604
0.00706214805
0.00704910972
0.00703540329
0.00702104268
0.00700604125
0.00699041329
0.00697416833
0.00695731398
0.00693986153
0.0069218275
0.00690323365
0.00688410763
0.00686448285
0.00684439715
0.00682389146
0.00680300907
0.00678179599
0.0067603019
0.00673857835
0.00671666517
0.00669458512
0.00667238645
0.00665010782
0.00662780365
0.00660551423
0.00658327199
0.00656110833
0.00653905213
0.00651712886
0.00649535973
0.00647376088
0.00645234302
0.00643111117
0.00641006464
0.00638919717
0.00636849718
0.00634794797
0.00632752806
0.00630721165
0.00628696911
0.00626676759
0.0062465717
0.00622634425
0.00620604696
0.00618564117
0.00616508861
0.00614435201
0.00612339556
0.00610218529
0.0060806895
0.00605887901
0.0060367273
0.00601421055
0.00599130761
0.00596799986
0.00594427094
0.00592010653
0.00589549395
0.00587042179
0.00584487952
0.00581885702
0.00579234418
0.00576533067
0.0057378061
0.00570975749
0.00568117143
0.00565204655
0.0056223455
0.00559205914
0.00556115681
0.00552961062
0.00549739067
0.00546446319
0.0054307924
0.00539634125
0.00536107183
0.00532494627
0.00528792769
0.0052499813
0.0052110756
0.00517118351
0.00513028349
0.00508836056
0.00504540711
0.00500142344
0.00495641813
0.00491040797
0.00486341778
0.00481547978
0.00476663286
0.00471692163
0.00466639529
0.00461510652
0.00456311023
0.00451046251
0.00445721951
0.0044034365
0.00434916702
0.00429446224
0.00423937037
0.00418393624
0.00412820107
0.00407220236
0.00401597394
0.00395954639
0.00390294739
0.00384620216
0.00378933348
0.00373236159
0.00367530393
0.00361817544
0.0035609887
0.00350375399
0.00344647926
0.00338917004
0.00333183025
0.00327446223
0.00321706479
0.00315963336
0.00310217364
0.00304469252
0.00298720807
0.00292968828
0.00287216036
0.0028146167
0.00275705986
0.00269948754
0.00264189986
0.0025842962
0.00252667472
0.00246903383
0.00241137247
0.00235368981
0.00229598508
0.00223825753
0.00218050649
0.00212273142
0.00206493184
0.00200710739
0.00194925791
0.0018913834
0.00183348398
0.00177555994
0.00171761163
0.0016596395
0.00160164402
0.00154362571
0.0014855851
0.00142752276
0.00136943927
0.00131133523
0.00125321124
0.00119506794
0.00113690599
0.00107872604
0.00102052879
0.000962314926
0.000904085164
0.000845840233
0.000787580861
0.00072930778
0.000671021737
0.000612723481
0.000554413752
0.000496093285
0.000437762854
0.000379423158
0.000321075153
0.00026271904
0.000204357883
0.000145984703
8.76251443e-05
2.91687688e-05
0.00717574477
0.00717515535
0.00717376919
0.00717167677
0.00716892756
0.00716547215
0.00716126508
0.00715630472
0.00715059567
0.00714412943
0.00713689712
0.00712889975
0.00712014511
0.00711064237
0.00710040073
0.00708942984
0.00707774012
0.00706534284
0.00705225132
0.00703847674
0.0070240311
0.00700893198
0.00699319349
0.00697682859
0.00695985202
0.00694228027
0.00692413178
0.00690542776
0.00688619361
0.00686645988
0.00684626237
0.00682564152
0.00680464134
0.00678330653
0.00676167815
0.00673979575
0.00671773071
0.00669549032
0.00667317703
0.00665078383
0.00662837311
0.00660598175
0.00658365028
0.00656141562
0.00653930808
0.00651735348
0.00649557332
0.00647398423
0.00645259743
0.00643141821
0.00641044565
0.00638967263
0.00636908604
0.0063486671
0.00632839184
0.0063082316
0.00628815366
0.00626812197
0.00624809787
0.00622804094
0.00620790982
0.00618766306
0.00616725989
0.00614666088
0.00612582855
0.00610472784
0.00608332651
0.00606159542
0.00603950871
0.00601704382
0.00599418134
0.00597090489
0.00594720067
0.00592305713
0.00589846451
0.00587341431
0.00584789888
0.00582191095
0.0057954432
0.00576848788
0.00574103642
0.0057130803
0.00568461104
0.00565560601
0.0056260606
0.00559594618
0.00556523789
0.00553390593
0.00550191645
0.00546923266
0.00543581502
0.0054016215
0.00536660835
0.00533073123
0.00529394635
0.00525621188
0.00521748941
0.0051777454
0.00513695264
0.00509509152
0.00505215101
0.00500812948
0.00496303504
0.00491688559
0.0048697084
0.00482153949
0.00477242261
0.00472240801
0.00467155111
0.00461991107
0.00456754932
0.00451452825
0.00446090991
0.00440675496
0.00435212168
0.00429706532
0.00424163746
0.00418588566
0.00412985333
0.00407357956
0.00401709936
0.00396044387
0.00390364069
0.00384671423
0.00378968593
0.00373257442
0.00367539558
0.00361816263
0.00356088637
0.00350357531
0.00344623608
0.00338887357
0.00333149128
0.00327409196
0.00321667838
0.00315925329
0.00310181802
0.00304437152
0.00298691315
0.00292940864
0.00287188371
0.00281434414
0.00275679175
0.00269922522
0.00264164344
0.00258404563
0.00252643052
0.00246879664
0.00241114262
0.00235346728
0.00229576953
0.00223804846
0.0021803034
0.00212253397
0.00206473999
0.0020069214
0.00194907821
0.00189121048
0.00183331832
0.00177540191
0.00171746146
0.00165949725
0.00160150962
0.00154349897
0.00148546575
0.00142741047
0.00136933367
0.00131123594
0.00125311789
0.00119498021
0.00113682357
0.00107864867
0.00102045625
0.000962247058
0.000904021832
0.000845781345
0.00078752636
0.000729257641
0.000670975965
0.000612682115
0.000554376869
0.000496061009
0.000437735364
0.000379400705
0.000321058063
0.00026270772
0.000204352695
0.000145985773
8.76307998e-05
2.91751212e-05
0.00717965908
0.00717902852
0.00717762075
0.00717548703
0.00717268388
0.00716916965
0.00716490608
0.00715989642
0.00715414728
0.00714764994
0.00714039358
0.00713237565
0.00712359938
0.00711406965
0.00710379304
0.00709277941
0.0070810419
0.0070685961
0.00705545777
0.00704164271
0.00702715991
0.00701201346
0.00699621304
0.00697977114
0.00696270136
0.00694502006
0.00692674704
0.00690790541
0.006888522
0.00686862788
0.0068482582
0.00682745124
0.00680624774
0.00678469163
0.00676283451
0.00674073402
0.00671841675
0.00669599921
0.00667346283
0.00665084867
0.00662822999
0.00660564763
0.00658315296
0.00656077419
0.0065385409
0.00651648336
0.00649462687
0.00647299097
0.00645158889
0.00643042685
0.00640950383
0.0063888117
0.00636833551
0.00634805402
0.00632794024
0.00630796204
0.00628808285
0.00626826251
0.00624845814
0.00622862511
0.00620871805
0.00618869178
0.00616850223
0.00614810721
0.0061274671
0.00610654541
0.00608530913
0.00606372906
0.00604177986
0.00601944004
0.00599669179
0.0059735207
0.00594991547
0.00592586745
0.00590137015
0.00587641874
0.00585100936
0.00582513859
0.00579880282
0.00577199768
0.00574471764
0.00571695498
0.00568869981
0.00565994395
0.00563066853
0.00560085248
0.00557046605
0.00553947664
0.00550784814
0.00547553992
0.00544250714
0.00540870132
0.00537407131
0.00533856447
0.00530212813
0.00526471133
0.00522626662
0.00518675203
0.00514613282
0.00510438323
0.00506148779
0.00501744226
0.00497225424
0.00492594309
0.00487853951
0.00483008462
0.00478062871
0.00473022961
0.00467895103
0.00462686076
0.00457402884
0.00452052595
0.00446642192
0.00441178443
0.00435667798
0.00430116308
0.00424529568
0.00418912684
0.00413270256
0.00407606381
0.00401924671
0.00396228287
0.00390519971
0.00384802087
0.0037907665
0.00373345361
0.00367609623
0.00361870575
0.00356129121
0.00350385962
0.00344641624
0.00338896476
0.00333150722
0.00327404385
0.00321657362
0.00315909425
0.00310159668
0.00304407649
0.00298656427
0.00292904885
0.00287152155
0.00281398084
0.00275642864
0.00269886455
0.0026412869
0.00258369421
0.00252608502
0.00246845783
0.00241081122
0.00235314405
0.00229545532
0.00223774413
0.0021800097
0.00212225138
0.00206446863
0.00200666111
0.00194882864
0.00189097119
0.00183308883
0.00177518175
0.00171725023
0.0016592946
0.00160131525
0.00154331262
0.0014852872
0.00142723952
0.00136917014
0.00131107967
0.00125296871
0.00119483794
0.00113668802
0.00107851965
0.00102033356
0.000962130489
0.000903911178
0.000845676415
0.000787426984
0.00072916368
0.000670887321
0.000612598737
0.00055429876
0.000495988232
0.000437668045
0.000379339035
0.000321002301
0.000262658184
0.000204309868
0.000145950298
8.76050429e-05
2.91621252e-05
0.00718452378
0.00718389865
0.0071824785
0.00718032749
0.00717750605
0.0071739735
0.00716969134
0.00716466195
0.00715889147
0.00715237133
0.00714509096
0.00713704823
0.00712824713
0.00711869373
0.00710839568
0.00709736227
0.00708560295
0.00707312592
0.00705993784
0.0070460459
0.0070314637
0.00701620743
0.00700029079
0.00698372626
0.00696652685
0.00694870735
0.00693028526
0.00691128174
0.00689172246
0.00687163812
0.00685106471
0.00683004334
0.00680861997
0.00678684346
0.00676475635
0.00674239778
0.00671985182
0.00669714264
0.00667431734
0.00665148015
0.0066286302
0.00660584539
0.00658315349
0.0065606016
0.00653823195
0.00651607592
0.00649415921
0.00647250187
0.00645111705
0.00643001039
0.00640917987
0.00638861579
0.00636830099
0.00634821129
0.00632831599
0.00630857858
0.0062889576
0.00626940763
0.00624988034
0.00623032573
0.00621069319
0.00619093275
0.00617099599
0.00615083708
0.00613041351
0.00610968668
0.00608862246
0.00606719137
0.00604536877
0.00602313477
0.00600047399
0.0059773752
0.0059538308
0.00592983616
0.00590538905
0.00588048884
0.0058551359
0.0058293309
0.00580307411
0.00577636463
0.00574919975
0.00572157459
0.0056934827
0.00566491676
0.00563587607
0.00560632416
0.00557623073
0.00554556295
0.0055142821
0.00548234366
0.00544969719
0.00541628684
0.00538205259
0.00534693175
0.00531086073
0.00527377724
0.00523562263
0.00519634431
0.00515589818
0.00511425078
0.00507138108
0.00502728174
0.00498195983
0.00493543679
0.00488774781
0.00483894063
0.00478907385
0.00473821488
0.00468643775
0.00463382085
0.00458044464
0.00452638972
0.004471735
0.00441655621
0.00436092475
0.00430490684
0.00424856294
0.00419194746
0.00413510873
0.0040780891
0.00402092525
0.00396364857
0.00390628565
0.00384885869
0.00379138603
0.00373388252
0.00367635989
0.00361882718
0.00356129098
0.00350375575
0.00344622405
0.00338869692
0.00333117464
0.00327365792
0.00321615013
0.00315866007
0.0031011582
0.00304367151
0.00298616668
0.00292865385
0.00287113444
0.00281360516
0.00275606479
0.00269851268
0.00264094746
0.00258336751
0.00252577127
0.00246815723
0.00241052392
0.00235287005
0.00229519451
0.00223749631
0.00217977465
0.0021220289
0.00206425855
0.00200646326
0.00194864281
0.00189079709
0.00183292612
0.00177503002
0.00171710899
0.00165916333
0.00160119339
0.0015431996
0.00148518244
0.00142714246
0.00136908023
0.00131099638
0.00125289155
0.00119476646
0.00113662181
0.00107845836
0.00102027688
0.000962078151
0.000903862977
0.00084563218
0.000787386578
0.000729127002
0.000670854301
0.000612569335
0.000554272969
0.000495966081
0.000437649605
0.000379324418
0.000320991662
0.000262651719
0.00020430772
0.000145952481
8.76101718e-05
2.9167498e-05
0.00719032554
0.00718969777
0.00718826961
0.00718610627
0.00718326864
0.00717971695
0.00717541403
0.00717036387
0.00716457382
0.00715803571
0.0071507387
0.00714267977
0.00713386142
0.00712428732
0.00711396163
0.00710288976
0.00709107829
0.00707853465
0.00706526782
0.00705128868
0.00703660868
0.00702123833
0.00700518856
0.00698847238
0.00697110422
0.00695309963
0.00693447632
0.00691525545
0.00689546248
0.00687512777
0.00685428659
0.00683297852
0.00681124615
0.00678913491
0.00676669743
0.00674397946
0.00672108884
0.00669802182
0.00667485069
0.00665164328
0.00662851919
0.00660544625
0.00658249606
0.00655972007
0.00653715663
0.00651484252
0.00649280937
0.00647108142
0.00644967488
0.00642859724
0.00640784668
0.00638741211
0.0063672736
0.00634740294
0.00632776447
0.00630831593
0.00628900947
0.00626979283
0.00625061063
0.00623140579
0.00621212093
0.00619269973
0.00617308819
0.00615323576
0.00613309623
0.00611262846
0.0060917969
0.0060705718
0.00604892929
0.00602685114
0.00600432448
0.00598134124
0.00595789762
0.00593399339
0.00590963114
0.0058848155
0.00585955231
0.00583384771
0.00580770724
0.00578113484
0.00575413172
0.00572669489
0.00569881649
0.0056704912
0.0056417712
0.00561256787
0.00558285354
0.00555259788
0.00552176073
0.00549029334
0.00545813861
0.00542523197
0.00539150271
0.00535687586
0.00532127434
0.00528462166
0.00524684497
0.00520787817
0.0051676651
0.00512616244
0.00508334205
0.00503919268
0.00499372088
0.00494695096
0.00489892412
0.00484969679
0.00479933842
0.00474792876
0.00469555504
0.00464230897
0.00458828405
0.00453357303
0.00447826584
0.00442244781
0.00436619841
0.00430959039
0.00425268922
0.00419555289
0.00413823205
0.00408077023
0.00402320432
0.00396556511
0.0039078779
0.0038501631
0.0037924368
0.00373471143
0.00367699613
0.00361929738
0.00356161938
0.00350396457
0.00344633409
0.00338872797
0.00333114459
0.00327357908
0.00321602136
0.00315846671
0.00310093105
0.0030434078
0.0029858881
0.00292836494
0.00287083923
0.00281330884
0.0027557711
0.00269822406
0.00264066569
0.00258309389
0.00252550669
0.00246790231
0.00241027911
0.00235263563
0.00229497056
0.00223728281
0.00217957144
0.00212183571
0.00206407507
0.00200628913
0.00194847768
0.00189064061
0.00183277793
0.00177488977
0.00171697633
0.0016590379
0.00160107486
0.00154308762
0.00148507669
0.0014270426
0.00136898596
0.00131090739
0.00125280756
0.00119468718
0.00113654697
0.00107838767
0.00102021009
0.000962014993
0.000903803209
0.000845575578
0.000787332951
0.000729076191
0.00067080619
0.000612523853
0.000554230093
0.000495925834
0.000437612054
0.000379289672
0.000320959867
0.00026262304
0.000204282408
0.000145930865
8.75938015e-05
2.91586605e-05
0.00719706979
0.00719644093
0.00719500692
0.00719283472
0.00718998642
0.00718642251
0.00718210628
0.00717704207
0.00717123698
0.0071646822
0.00715736603
0.00714928443
0.0071404388
0.00713083162
0.007120466
0.00710934646
0.00709747895
0.00708487003
0.00707152643
0.0070574555
0.00704266625
0.00702716982
0.00701097845
0.00699410449
0.00697656045
0.00695835993
0.00693951906
0.00692005771
0.00690000043
0.00687937709
0.0068582232
0.00683657998
0.00681449474
0.00679201965
0.00676921012
0.00674614333
0.00672280005
0.0066993205
0.00667575907
0.00665218556
0.00662861949
0.00660517791
0.0065819012
0.00655883414
0.00653602856
0.00651352663
0.00649136208
0.00646956157
0.00644814299
0.00642711421
0.00640647266
0.00638620523
0.00636628873
0.00634669036
0.00632736866
0.00630827442
0.00628935198
0.00627054062
0.00625177618
0.00623299278
0.00621412459
0.00619510743
0.00617588029
0.00615638671
0.00613657577
0.006116403
0.00609583088
0.00607482914
0.00605337476
0.0060314517
0.0060090505
0.00598616753
0.00596280426
0.00593896628
0.00591466235
0.00588990341
0.00586470162
0.00583906939
0.00581301845
0.00578655868
0.00575969644
0.00573243098
0.00570474417
0.00567655855
0.00564824514
0.00561940005
0.00559007274
0.0055602487
0.00552988751
0.00549893517
0.0054673267
0.00543498705
0.00540183264
0.00536777339
0.00533271543
0.00529656439
0.00525922934
0.00522062686
0.00518068528
0.00513934855
0.00509657936
0.00505236152
0.00500670108
0.00495962625
0.0049111862
0.0048614488
0.00481049756
0.00475842808
0.00470534427
0.00465135456
0.00459656847
0.00454109351
0.00448503268
0.00442848248
0.0043715315
0.00431425958
0.00425673735
0.00419902626
0.0041411788
0.00408323905
0.00402524333
0.00396722097
0.00390919512
0.0038511835
0.00379319922
0.00373525145
0.00367734607
0.0036194862
0.00356167271
0.00350390454
0.00344617904
0.00338849261
0.00333084192
0.0032732261
0.00321563845
0.00315807661
0.00310053941
0.00304301289
0.00298549638
0.00292798341
0.00287047006
0.00281295376
0.00275543165
0.00269790109
0.00264035965
0.002582805
0.00252523496
0.00246764756
0.00241004099
0.00235241369
0.00229476433
0.00223709179
0.00217939513
0.0021216736
0.0020639266
0.00200615368
0.00194835455
0.00189052908
0.00183267724
0.00177479916
0.00171689507
0.00165896525
0.0016010101
0.00154303008
0.00148502571
0.00142699756
0.00136894626
0.00131087248
0.00125277692
0.00119466034
0.00113652349
0.00107836717
0.00102019223
0.000961999503
0.000903789838
0.000845564126
0.000787323247
0.000729068096
0.000670799592
0.000612518664
0.000554226251
0.000495923304
0.000437610829
0.000379289772
0.000320961338
0.000262625957
0.000204286809
0.000145936728
8.76001159e-05
2.91635595e-05
0.00720476008
0.00720413101
0.00720269332
0.00720051596
0.00719766183
0.0071940909
0.00718976646
0.00718469308
0.00717887781
0.00717231136
0.00716498127
0.0071568825
0.00714801521
0.00713838034
0.0071279791
0.00711681372
0.00710488758
0.00709220494
0.00707877094
0.00706459208
0.0070496768
0.00703403497
0.00701767711
0.00700061412
0.00698285766
0.00696442065
0.00694531824
0.00692556907
0.00690519657
0.00688423001
0.00686270488
0.00684066282
0.00681815094
0.00679522272
0.00677193868
0.00674835373
0.00672453442
0.00670055294
0.00667648995
0.0066524234
0.0066284151
0.00660453967
0.00658086312
0.00655744888
0.00653434824
0.00651160791
0.0064892688
0.00646736292
0.00644591181
0.00642492542
0.00640440124
0.00638432422
0.00636466715
0.00634539143
0.00632644814
0.00630777927
0.00628931925
0.00627099667
0.00625273629
0.00623446118
0.00621609477
0.00619756301
0.00617879613
0.00615973031
0.00614030892
0.00612048357
0.00610021463
0.0060794715
0.00605823253
0.00603648456
0.00601422225
0.00599144719
0.00596816685
0.00594439349
0.00592014304
0.00589543392
0.00587028594
0.0058447193
0.00581875359
0.00579240704
0.00576569636
0.0057386383
0.00571125912
0.00568363435
0.00565536575
0.00562682705
0.00559791976
0.00556859059
0.00553878576
0.0055084422
0.0054774853
0.00544582782
0.00541337076
0.00538000562
0.00534561759
0.0053100897
0.00527330781
0.00523516609
0.00519557261
0.00515445467
0.00511176307
0.00506747524
0.00502159681
0.00497416143
0.00492522902
0.00487488259
0.0048232241
0.00477036962
0.00471644434
0.00466157772
0.00460589904
0.00454953371
0.00449260024
0.00443520802
0.00437745587
0.00431943126
0.00426121008
0.00420285685
0.00414442538
0.00408595949
0.00402749405
0.003969056
0.00391066543
0.00385233651
0.00379407854
0.00373589676
0.00367779312
0.00361976695
0.00356181561
0.00350393499
0.00344611993
0.00338836475
0.00333066288
0.00327301121
0.00321539063
0.0031577998
0.00310024209
0.00304270439
0.00298518156
0.00292766878
0.00287016093
0.0028126537
0.00275514326
0.00269762613
0.00264009921
0.00258255969
0.00252500504
0.00246743303
0.0024098417
0.00235222931
0.0022945944
0.0022369357
0.00217925216
0.00212154299
0.00206380758
0.00200604551
0.00194825653
0.00189044053
0.0018325975
0.00177472759
0.00171683103
0.00165890812
0.00160095928
0.00154298499
0.00148498578
0.00142696227
0.00136891512
0.00131084502
0.00125275269
0.00119463893
0.00113650452
0.00107835027
0.00102017705
0.000961985722
0.000903777157
0.000845552274
0.000787311991
0.00072905724
0.000670788981
0.000612508188
0.00055421584
0.000495912928
0.000437600492
0.000379279508
0.000320951204
0.000262616019
0.000204277173
0.000145927546
8.75922604e-05
2.91587137e-05
0.00721339829
0.00721277001
0.00721133085
0.00720915173
0.00720629607
0.00720272304
0.00719839563
0.00719331838
0.00718749792
0.00718092406
0.00717358321
0.00716546906
0.00715658033
0.00714691646
0.00713647698
0.00712526241
0.00711327431
0.00710051515
0.00708698844
0.00707269905
0.00705765327
0.00704185888
0.0070253249
0.00700806094
0.00699007689
0.00697138358
0.00695199412
0.00693192547
0.00691119975
0.00688984531
0.00686789718
0.0068453973
0.00682239463
0.00679894435
0.00677510696
0.00675095051
0.00672654813
0.00670198154
0.00667733333
0.00665268766
0.00662812237
0.00660372276
0.00657956869
0.00655572807
0.00653226351
0.00650923115
0.00648667849
0.00646464306
0.00644315067
0.00642221351
0.00640182908
0.00638197997
0.00636263422
0.00634374627
0.00632525813
0.006307101
0.00628919703
0.00627146156
0.00625380555
0.00623613824
0.00621836981
0.0062004139
0.00618218992
0.00616362497
0.00614465543
0.00612522806
0.00610530067
0.0060848423
0.006063833
0.00604226323
0.0060201329
0.00599745023
0.00597423042
0.00595049413
0.00592626612
0.00590157384
0.00587644608
0.00585091192
0.00582499961
0.00579873583
0.00577214504
0.00574524887
0.0057180648
0.00569059742
0.0056627773
0.00563466399
0.00560623555
0.00557745501
0.00554827143
0.00551861716
0.00548840833
0.00545754419
0.00542590775
0.00539336826
0.00535978486
0.00532501185
0.00528890523
0.00525132994
0.00521216749
0.00517132319
0.00512873216
0.00508436359
0.00503822281
0.004990351
0.00494082256
0.00488974071
0.00483723165
0.004783438
0.0047285122
0.00467261009
0.0046158854
0.00455848512
0.00450054604
0.00444219226
0.00438353384
0.00432466615
0.00426567002
0.00420661234
0.00414754716
0.00408851682
0.00402955341
0.00397068012
0.00391191262
0.00385326033
0.00379472757
0.00373631465
0.0036780187
0.00361983444
0.00356175484
0.00350377146
0.00344587455
0.00338805331
0.00333029457
0.00327261645
0.00321498835
0.00315739577
0.00309983831
0.00304230814
0.00298479748
0.00292730022
0.00286981063
0.00281232357
0.00275483449
0.0026973394
0.00263983473
0.00258231728
0.00252478426
0.0024672332
0.00240966196
0.0023520687
0.00229445189
0.00223681026
0.00217914279
0.00212144868
0.00206372731
0.00200597825
0.00194820124
0.00189039618
0.0018325631
0.00177470216
0.00171681364
0.00165889791
0.00160095542
0.00154298669
0.00148499231
0.00142697294
0.00136892926
0.00131086203
0.001252772
0.00119466001
0.0011365269
0.00107837353
0.0010202008
0.000962009626
0.000903800931
0.000845575668
0.00078733479
0.000729079259
0.000670810062
0.000612528197
0.000554234666
0.000495930484
0.000437616713
0.000379294353