/*--------------------------------*- C++ -*----------------------------------*\
| =========                 |                                                 |
| \\      /  F ield         | OpenFOAM: The Open Source CFD Toolbox           |
|  \\    /   O peration     | Version:  v2012                                 |
|   \\  /    A nd           | Website:  www.openfoam.com                      |
|    \\/     M anipulation  |                                                 |
\*---------------------------------------------------------------------------*/
FoamFile
{
    version     2.0;
    format      ascii;
    class       surfaceScalarField;
    location    "2.54";
    object      phiHbyA;
}
// * * * * * * * * * * * * * * * * * * * * * * * * * * * * * * * * * * * * * //

dimensions      [0 3 -1 0 0 0 0];
oriented        oriented;


internalField   nonuniform List<scalar> 
56481
(
6.66667599e-07
1.1249455e-11
6.66642132e-07
1.18986159e-10
6.66557887e-07
3.21518102e-10
6.66391735e-07
5.9236417e-10
6.66133569e-07
8.96153925e-10
6.65785287e-07
1.19756564e-09
6.65358221e-07
1.46483124e-09
6.64870308e-07
1.67236042e-09
6.64343488e-07
1.80265464e-09
6.63801182e-07
1.84800822e-09
6.63266036e-07
1.81049262e-09
6.62758513e-07
1.69900673e-09
6.62296412e-07
1.52531346e-09
6.6189458e-07
1.30274712e-09
6.61563734e-07
1.04886271e-09
6.61308117e-07
7.89180313e-10
6.61122833e-07
5.57496648e-10
6.60992417e-07
3.90718532e-10
6.60891616e-07
3.19660466e-10
6.6078942e-07
3.59812951e-10
6.60655955e-07
5.07089959e-10
6.60468485e-07
7.39678565e-10
6.60214722e-07
1.02309192e-09
6.59893532e-07
1.31742106e-09
6.59513494e-07
1.58509078e-09
6.59090252e-07
1.79610013e-09
6.58643496e-07
1.93011599e-09
6.58194218e-07
1.97666738e-09
6.57762692e-07
1.93437343e-09
6.57367254e-07
1.80968582e-09
6.57023532e-07
1.61573069e-09
6.5674376e-07
1.3715968e-09
6.56536068e-07
1.10203049e-09
6.56401435e-07
8.36568878e-10
6.56334096e-07
6.07218985e-10
6.56320768e-07
4.46732518e-10
6.56340526e-07
3.83030971e-10
6.56369844e-07
4.30092888e-10
6.56385573e-07
5.8697751e-10
6.56368783e-07
8.35408356e-10
6.56307806e-07
1.14258359e-09
6.56199784e-07
1.46816562e-09
6.56050224e-07
1.77329403e-09
6.55870606e-07
2.02904796e-09
6.55674783e-07
2.22177901e-09
6.55475331e-07
2.35377102e-09
6.55280911e-07
2.43940032e-09
6.55095228e-07
2.49856093e-09
6.54917574e-07
2.54991101e-09
6.54744403e-07
2.60619443e-09
6.54571177e-07
2.67272091e-09
6.54393805e-07
2.74866527e-09
6.54209363e-07
2.82986224e-09
6.54016125e-07
2.91157687e-09
6.53813191e-07
2.99023087e-09
6.53600048e-07
3.06384771e-09
6.53376263e-07
3.13159733e-09
6.53141392e-07
3.19304822e-09
6.52895043e-07
3.24759536e-09
6.52636988e-07
3.29424289e-09
6.52367265e-07
3.33167283e-09
6.52086229e-07
3.35843214e-09
6.51794558e-07
3.37309765e-09
6.51493246e-07
3.37436203e-09
6.51183591e-07
3.36104963e-09
6.50867184e-07
3.33211285e-09
6.50545901e-07
3.28662768e-09
6.50221893e-07
3.22379272e-09
6.49897568e-07
3.14294757e-09
6.49575573e-07
3.0435877e-09
6.49258774e-07
2.92537186e-09
6.48950237e-07
2.78813472e-09
6.48653219e-07
2.6318891e-09
6.48371164e-07
2.45681865e-09
6.48107703e-07
2.26327167e-09
6.47866655e-07
2.05174093e-09
6.47651989e-07
1.8228592e-09
6.47467746e-07
1.57737982e-09
6.47317901e-07
1.31614922e-09
6.47206178e-07
1.04011855e-09
6.47135806e-07
7.50437438e-10
6.47108896e-07
4.48830162e-10
6.47125591e-07
1.3801922e-10
6.47195479e-07
-1.83001609e-10
6.47324673e-07
-5.09540879e-10
6.47514251e-07
-8.41552742e-10
6.47764944e-07
-1.17794054e-09
6.48077308e-07
-1.51664603e-09
6.4845167e-07
-1.85557868e-09
6.4888785e-07
-2.1922849e-09
6.49385061e-07
-2.52402826e-09
6.49941867e-07
-2.84793365e-09
6.50556144e-07
-3.16101746e-09
6.51225087e-07
-3.46022948e-09
6.51945233e-07
-3.74252264e-09
6.52712521e-07
-4.00492845e-09
6.5352234e-07
-4.24465017e-09
6.54369596e-07
-4.45915379e-09
6.55248775e-07
-4.64624452e-09
6.56154014e-07
-4.80414178e-09
6.57079187e-07
-4.93152989e-09
6.58017997e-07
-5.02758124e-09
6.58964086e-07
-5.09197737e-09
6.59911141e-07
-5.12490031e-09
6.60853004e-07
-5.12701952e-09
6.61783781e-07
-5.09945076e-09
6.62697926e-07
-5.0437261e-09
6.63590323e-07
-4.96172764e-09
6.64456343e-07
-4.85563638e-09
6.65291892e-07
-4.72786143e-09
6.66093434e-07
-4.5809772e-09
6.66858009e-07
-4.41764846e-09
6.67583223e-07
-4.24057421e-09
6.68267242e-07
-4.05242885e-09
6.68908755e-07
-3.85580404e-09
6.69506942e-07
-3.65317056e-09
6.70061423e-07
-3.44684225e-09
6.70572202e-07
-3.23894113e-09
6.71039625e-07
-3.03136867e-09
6.71464351e-07
-2.82578278e-09
6.71847353e-07
-2.62358499e-09
6.72189914e-07
-2.42591764e-09
6.7249356e-07
-2.23365207e-09
6.72759952e-07
-2.0473634e-09
6.72990967e-07
-1.86753179e-09
6.73188836e-07
-1.69476501e-09
6.73355962e-07
-1.52941356e-09
6.73494668e-07
-1.37161053e-09
6.73607145e-07
-1.2214625e-09
6.73695439e-07
-1.07898859e-09
6.73761482e-07
-9.4408956e-10
6.73807215e-07
-8.16645052e-10
6.738346e-07
-6.96486182e-10
6.73845598e-07
-5.83404312e-10
6.73842157e-07
-4.7719016e-10
6.73826265e-07
-3.77714678e-10
6.7379998e-07
-2.84935685e-10
6.73765333e-07
-1.98907776e-10
6.73724182e-07
-1.19862326e-10
6.73677812e-07
-4.80310773e-11
6.73626173e-07
1.66697618e-11
6.73566458e-07
7.52191092e-11
6.73498251e-07
1.25347826e-10
6.73423042e-07
1.69215027e-10
6.73341916e-07
2.07871196e-10
6.73255828e-07
2.41873624e-10
6.73165618e-07
2.71687171e-10
6.73072035e-07
2.97746403e-10
6.72975754e-07
3.20444962e-10
6.72877394e-07
3.40128873e-10
6.72777522e-07
3.57095936e-10
6.72676656e-07
3.7160544e-10
6.72575259e-07
3.83885581e-10
6.72473745e-07
3.94135082e-10
6.72372473e-07
4.02525498e-10
6.72271747e-07
4.09206495e-10
6.72171828e-07
4.14312285e-10
6.72072932e-07
4.17965855e-10
6.7197524e-07
4.20281471e-10
6.71878908e-07
4.21367616e-10
6.71784066e-07
4.21327689e-10
6.71690832e-07
4.2026078e-10
6.71599307e-07
4.1826075e-10
6.71509582e-07
4.15416982e-10
6.71421741e-07
4.11812788e-10
6.71335857e-07
4.07525673e-10
6.71251998e-07
4.02626466e-10
6.71170222e-07
3.97179471e-10
6.71090581e-07
3.91241759e-10
6.71013118e-07
3.84864032e-10
6.70937868e-07
3.78091098e-10
6.7086486e-07
3.70961963e-10
6.70794112e-07
3.63511248e-10
6.7072564e-07
3.55770011e-10
6.7065945e-07
3.47765958e-10
6.70595549e-07
3.39524662e-10
6.70533935e-07
3.31069996e-10
6.70474609e-07
3.22423868e-10
6.7041757e-07
3.13606863e-10
6.70362816e-07
3.04637757e-10
6.70310349e-07
2.9553355e-10
6.70260171e-07
2.86308415e-10
6.7021229e-07
2.76973731e-10
6.70166717e-07
2.67535832e-10
6.70123473e-07
2.57999383e-10
6.70082592e-07
2.48337534e-10
6.70044108e-07
2.38613194e-10
6.70008188e-07
2.28357933e-10
6.69974635e-07
2.19377555e-10
2.02505395e-10
6.66677808e-07
5.88188084e-13
6.6667971e-07
1.17401177e-10
6.66628359e-07
3.73335565e-10
6.66490107e-07
7.31243872e-10
6.66247273e-07
1.13970962e-09
6.65898928e-07
1.54672474e-09
6.65457151e-07
1.90752608e-09
6.64942305e-07
2.18820583e-09
6.6437962e-07
2.36638793e-09
6.63796413e-07
2.43228862e-09
6.63219456e-07
2.38852794e-09
6.62673173e-07
2.24635127e-09
6.62179024e-07
2.0204902e-09
6.61755154e-07
1.72759119e-09
6.61414998e-07
1.38992653e-09
6.61164403e-07
1.0406073e-09
6.60998389e-07
7.24269235e-10
6.6089968e-07
4.90122149e-10
6.60840306e-07
3.79685447e-10
6.60785746e-07
4.15000798e-10
6.60700654e-07
5.92819024e-10
6.60555327e-07
8.8566875e-10
6.60330608e-07
1.24849258e-09
6.60020279e-07
1.6284308e-09
6.59631075e-07
1.97496093e-09
6.59180283e-07
2.24753135e-09
6.5869192e-07
2.41907908e-09
6.5819293e-07
2.47620933e-09
6.57710206e-07
2.4175963e-09
6.57268565e-07
2.25176752e-09
6.56889427e-07
1.99524847e-09
6.56589678e-07
1.67166072e-09
6.5638031e-07
1.31164713e-09
6.56264649e-07
9.52413418e-10
6.5623614e-07
6.35846419e-10
6.56278671e-07
4.04268601e-10
6.56368334e-07
2.93380724e-10
6.56474078e-07
3.24314462e-10
6.56563227e-07
4.97759174e-10
6.56607488e-07
7.91045505e-10
6.56588247e-07
1.16169027e-09
6.56499612e-07
1.55663599e-09
6.56348471e-07
1.92424419e-09
6.56151403e-07
2.22590003e-09
6.55929463e-07
2.44347947e-09
6.55702489e-07
2.5804803e-09
6.55484663e-07
2.65693699e-09
6.55282464e-07
2.70044834e-09
6.55095208e-07
2.73683498e-09
6.54917443e-07
2.78361001e-09
6.54741954e-07
2.84784805e-09
6.54562217e-07
2.92803148e-09
6.54373678e-07
3.0180267e-09
6.5417385e-07
3.11103089e-09
6.53961688e-07
3.20202464e-09
6.53736794e-07
3.28838191e-09
6.53498861e-07
3.36918251e-09
6.53247474e-07
3.44410408e-09
6.52982182e-07
3.51257461e-09
6.52702688e-07
3.57344576e-09
6.52409004e-07
3.6250868e-09
6.52101537e-07
3.66565355e-09
6.51781083e-07
3.6933297e-09
6.51448808e-07
3.70644036e-09
6.5110623e-07
3.70345768e-09
6.50755193e-07
3.68300695e-09
6.50397849e-07
3.64385392e-09
6.50036649e-07
3.58490097e-09
6.49674318e-07
3.50520888e-09
6.49313842e-07
3.40401568e-09
6.48958439e-07
3.28074577e-09
6.48611536e-07
3.13502358e-09
6.48276749e-07
2.96667562e-09
6.47957852e-07
2.77572367e-09
6.47658754e-07
2.56238411e-09
6.47383452e-07
2.32705824e-09
6.47136008e-07
2.0703172e-09
6.46920497e-07
1.79289733e-09
6.46740927e-07
1.49571333e-09
6.46601038e-07
1.17998373e-09
6.4650474e-07
8.46683967e-10
6.46457067e-07
4.96417744e-10
6.46465069e-07
1.29933142e-10
6.46527607e-07
-2.45695838e-10
6.46649362e-07
-6.31471784e-10
6.46833242e-07
-1.02567298e-09
6.4708155e-07
-1.42653962e-09
6.47395937e-07
-1.83137451e-09
6.47777196e-07
-2.23723538e-09
6.48225465e-07
-2.6410125e-09
6.48740209e-07
-3.03929441e-09
6.49320138e-07
-3.4284484e-09
6.49963169e-07
-3.8047008e-09
6.50666432e-07
-4.16420836e-09
6.51426276e-07
-4.50314607e-09
6.52238311e-07
-4.81780141e-09
6.53097455e-07
-5.10468585e-09
6.53998e-07
-5.36064108e-09
6.54933701e-07
-5.58292933e-09
6.55897867e-07
-5.76932598e-09
6.56883479e-07
-5.9181864e-09
6.57883317e-07
-6.0284815e-09
6.58890099e-07
-6.09982941e-09
6.59896618e-07
-6.13248858e-09
6.6089588e-07
-6.12734148e-09
6.6188123e-07
-6.08584092e-09
6.62846457e-07
-6.00996702e-09
6.6378589e-07
-5.9021392e-09
6.64694463e-07
-5.76514588e-09
6.65567763e-07
-5.60205098e-09
6.6640206e-07
-5.41611092e-09
6.67194309e-07
-5.21067836e-09
6.67942142e-07
-4.98912976e-09
6.68643844e-07
-4.7547913e-09
6.69298308e-07
-4.51086734e-09
6.69904995e-07
-4.26039452e-09
6.70463876e-07
-4.00619872e-09
6.70975373e-07
-3.75085428e-09
6.71440302e-07
-3.49665636e-09
6.71859813e-07
-3.24559692e-09
6.72235333e-07
-2.99935795e-09
6.72568537e-07
-2.7593279e-09
6.72861339e-07
-2.52661919e-09
6.73115952e-07
-2.30210299e-09
6.7333477e-07
-2.08644317e-09
6.73520089e-07
-1.88014532e-09
6.73674179e-07
-1.68353317e-09
6.73799364e-07
-1.49679555e-09
6.73898013e-07
-1.3200845e-09
6.73972597e-07
-1.15351985e-09
6.74025244e-07
-9.96654111e-10
6.74057996e-07
-8.49282569e-10
6.74072848e-07
-7.11191053e-10
6.7407174e-07
-5.82116325e-10
6.74056565e-07
-4.61806077e-10
6.74029114e-07
-3.5002327e-10
6.73990865e-07
-2.46417085e-10
6.73942868e-07
-1.50618298e-10
6.73885728e-07
-6.24098373e-11
6.73820143e-07
1.78679189e-11
6.73748941e-07
8.81437103e-11
6.73672963e-07
1.51427569e-10
6.73591467e-07
2.07079629e-10
6.73504954e-07
2.55972731e-10
6.73414059e-07
2.99014426e-10
6.73319397e-07
3.36784179e-10
6.73221585e-07
3.69749408e-10
6.73121223e-07
3.98358657e-10
6.73018882e-07
4.23036909e-10
6.72915086e-07
4.44173602e-10
6.72810313e-07
4.62114496e-10
6.72704997e-07
4.7716418e-10
6.72599527e-07
4.89592892e-10
6.72494253e-07
4.99640141e-10
6.72389486e-07
5.07516925e-10
6.722855e-07
5.1341011e-10
6.72182534e-07
5.17488682e-10
6.72080795e-07
5.19907619e-10
6.71980462e-07
5.20809871e-10
6.71881688e-07
5.20329353e-10
6.71784605e-07
5.1859165e-10
6.71689326e-07
5.1571505e-10
6.71595945e-07
5.11809684e-10
6.71504544e-07
5.06978836e-10
6.71415195e-07
5.01317507e-10
6.71327957e-07
4.94913253e-10
6.71242881e-07
4.87845609e-10
6.71160011e-07
4.80186685e-10
6.71079384e-07
4.72000598e-10
6.71001029e-07
4.63344656e-10
6.7092497e-07
4.54269907e-10
6.70851225e-07
4.44821093e-10
6.70779807e-07
4.35038121e-10
6.70710724e-07
4.2495677e-10
6.70643979e-07
4.14608694e-10
6.70579574e-07
4.04022682e-10
6.70517506e-07
3.9322504e-10
6.70457773e-07
3.82239221e-10
6.70400371e-07
3.71086614e-10
6.70345296e-07
3.59786052e-10
6.70292543e-07
3.4835397e-10
6.70242112e-07
3.36803337e-10
6.70194e-07
3.25143972e-10
6.7014821e-07
3.13380233e-10
6.70104742e-07
3.01516798e-10
6.70063601e-07
2.89523292e-10
6.70024751e-07
2.77500331e-10
6.69988248e-07
2.64902769e-10
6.69953419e-07
2.54192026e-10
2.34234571e-10
6.66673763e-07
-6.84779194e-12
6.66664383e-07
1.2644966e-10
6.66602077e-07
4.35247688e-10
6.66455966e-07
8.76873731e-10
6.66209944e-07
1.38513889e-09
6.65862942e-07
1.89303594e-09
6.65425743e-07
2.34396388e-09
6.64917162e-07
2.69596966e-09
6.64360999e-07
2.92168863e-09
6.63783378e-07
3.00901989e-09
6.63210198e-07
2.96081006e-09
6.62665313e-07
2.79034683e-09
6.62169808e-07
2.51512714e-09
6.61741631e-07
2.15493446e-09
6.61394313e-07
1.73645597e-09
6.61134312e-07
1.29987362e-09
6.60957882e-07
9.00023312e-10
6.60849062e-07
5.98317511e-10
6.60780257e-07
4.47906175e-10
6.6071626e-07
4.78434282e-10
6.60621684e-07
6.86834154e-10
6.60468131e-07
1.0386494e-09
6.60238426e-07
1.4776202e-09
6.59927803e-07
1.93848753e-09
6.59542986e-07
2.35923656e-09
6.5909999e-07
2.6900168e-09
6.58621065e-07
2.89752696e-09
6.58131489e-07
2.9653438e-09
6.57656887e-07
2.89179309e-09
6.57221267e-07
2.68701865e-09
6.56845584e-07
2.37060122e-09
6.56546472e-07
1.97048014e-09
6.56334899e-07
1.52296473e-09
6.56214552e-07
1.07254036e-09
6.56180421e-07
6.69790446e-10
6.56218134e-07
3.66403435e-10
6.56303952e-07
2.07447399e-10
6.56407375e-07
2.20801583e-10
6.56497199e-07
4.07854963e-10
6.56546597e-07
7.41568757e-10
6.56537523e-07
1.17068941e-09
6.56463429e-07
1.63065746e-09
6.56329459e-07
2.05814429e-09
6.56150019e-07
2.405271e-09
6.55944242e-07
2.64918951e-09
6.55730756e-07
2.79390485e-09
6.5552339e-07
2.86424694e-09
6.55329003e-07
2.89478777e-09
6.55147695e-07
2.91810108e-09
6.54974836e-07
2.95643105e-09
6.54803785e-07
3.01886385e-09
6.54628223e-07
3.10355697e-09
6.54443474e-07
3.20273639e-09
6.54246734e-07
3.30772444e-09
6.54036598e-07
3.41210594e-09
6.53812367e-07
3.51254916e-09
6.53573525e-07
3.60794977e-09
6.53319531e-07
3.69801054e-09
6.53049869e-07
3.78213729e-09
6.52764204e-07
3.85899821e-09
6.52462538e-07
3.92662846e-09
6.52145288e-07
3.98276734e-09
6.51813311e-07
4.02516118e-09
6.51467874e-07
4.05172066e-09
6.51110618e-07
4.06054879e-09
6.50743528e-07
4.04992371e-09
6.5036892e-07
4.01828201e-09
6.49989421e-07
3.96421543e-09
6.49607945e-07
3.88649762e-09
6.49227665e-07
3.78410735e-09
6.48851985e-07
3.65623901e-09
6.4848451e-07
3.50231566e-09
6.48129022e-07
3.32198803e-09
6.47789455e-07
3.11512366e-09
6.47469879e-07
2.88180482e-09
6.47174477e-07
2.62231935e-09
6.46907522e-07
2.33714852e-09
6.46673345e-07
2.02696955e-09
6.46476321e-07
1.69265527e-09
6.46320996e-07
1.33525173e-09
6.46211759e-07
9.55897824e-10
6.46151682e-07
5.56511707e-10
6.4614088e-07
1.40765222e-10
6.461887e-07
-2.9342323e-10
6.46298312e-07
-7.40967796e-10
6.46472823e-07
-1.20001968e-09
6.46714314e-07
-1.66782438e-09
6.47024536e-07
-2.14135101e-09
6.47404738e-07
-2.61715055e-09
6.4785543e-07
-3.09137228e-09
6.48376341e-07
-3.55982902e-09
6.48966387e-07
-4.0180731e-09
6.49623621e-07
-4.46146866e-09
6.50345209e-07
-4.88528642e-09
6.51127429e-07
-5.28481473e-09
6.51965693e-07
-5.65547549e-09
6.52854595e-07
-5.99296192e-09
6.53787983e-07
-6.29337098e-09
6.54759058e-07
-6.55331788e-09
6.55760495e-07
-6.77005372e-09
6.5678459e-07
-6.94155259e-09
6.5782341e-07
-7.06655986e-09
6.58868964e-07
-7.1446333e-09
6.59913363e-07
-7.17613507e-09
6.60948981e-07
-7.1622093e-09
6.61968594e-07
-7.1047124e-09
6.62965509e-07
-7.00615345e-09
6.63933661e-07
-6.86958036e-09
6.64867689e-07
-6.69848615e-09
6.65762989e-07
-6.49668831e-09
6.66615733e-07
-6.26822144e-09
6.67422873e-07
-6.01721603e-09
6.68182117e-07
-5.74780678e-09
6.68891899e-07
-5.46404098e-09
6.69551319e-07
-5.16979191e-09
6.70160086e-07
-4.86870395e-09
6.70718451e-07
-4.56414177e-09
6.71227128e-07
-4.25914632e-09
6.71687237e-07
-3.95641662e-09
6.7210025e-07
-3.65829519e-09
6.72467936e-07
-3.36676303e-09
6.72792316e-07
-3.08345746e-09
6.73075606e-07
-2.80968767e-09
6.73320161e-07
-2.546464e-09
6.73528424e-07
-2.29453755e-09
6.73702882e-07
-2.05445835e-09
6.73846051e-07
-1.82658099e-09
6.73960426e-07
-1.61107348e-09
6.74048379e-07
-1.40796157e-09
6.74112051e-07
-1.21713594e-09
6.74153759e-07
-1.03833088e-09
6.74175732e-07
-8.71252433e-10
6.74180069e-07
-7.15551656e-10
6.74168652e-07
-5.70749964e-10
6.7414297e-07
-4.36201094e-10
6.74104994e-07
-3.12165527e-10
6.74056875e-07
-1.98458942e-10
6.74000803e-07
-9.47469485e-11
6.7394002e-07
-1.81130468e-12
6.73871844e-07
8.58163614e-11
6.73796772e-07
1.6303548e-10
6.73715947e-07
2.3207535e-10
6.7362958e-07
2.93265714e-10
6.7353828e-07
3.47091048e-10
6.73442833e-07
3.9427804e-10
6.73343947e-07
4.35485366e-10
6.73242248e-07
4.71262203e-10
6.73138318e-07
5.02103313e-10
6.730327e-07
5.28469542e-10
6.72925905e-07
5.50785774e-10
6.72818402e-07
5.69436412e-10
6.72710622e-07
5.84766943e-10
6.72602952e-07
5.97089994e-10
6.72495735e-07
6.06689847e-10
6.72389267e-07
6.13823171e-10
6.72283802e-07
6.18720151e-10
6.72179553e-07
6.21588723e-10
6.720767e-07
6.22617505e-10
6.71975395e-07
6.21977334e-10
6.71875768e-07
6.19824789e-10
6.71777929e-07
6.16303652e-10
6.71681976e-07
6.11547063e-10
6.71587991e-07
6.05677338e-10
6.71496049e-07
5.98808222e-10
6.71406214e-07
5.91043755e-10
6.71318543e-07
5.82479765e-10
6.71233085e-07
5.73203522e-10
6.71149881e-07
5.63294619e-10
6.71068966e-07
5.52824327e-10
6.70990366e-07
5.41856914e-10
6.70914102e-07
5.30450122e-10
6.70840188e-07
5.18654894e-10
6.70768633e-07
5.0651683e-10
6.70699441e-07
4.94076727e-10
6.70632611e-07
4.81370356e-10
6.70568139e-07
4.6842974e-10
6.70506019e-07
4.55283513e-10
6.70446244e-07
4.41956486e-10
6.70388805e-07
4.28470643e-10
6.70333695e-07
4.14844712e-10
6.70280906e-07
4.01094548e-10
6.70230432e-07
3.87232159e-10
6.70182268e-07
3.73266366e-10
6.70136408e-07
3.59200545e-10
6.70092849e-07
3.45039615e-10
6.70051591e-07
3.30749004e-10
6.70012614e-07
3.16444469e-10
6.69976019e-07
3.01478387e-10
6.69941525e-07
2.88622485e-10
2.64825943e-10
6.66677538e-07
-1.75745048e-11
6.66679947e-07
1.24208467e-10
6.66630774e-07
4.84659844e-10
6.6649507e-07
1.01290653e-09
6.66253745e-07
1.62683348e-09
6.65904359e-07
2.24283322e-09
6.65457522e-07
2.79126534e-09
6.64932747e-07
3.22125125e-09
6.64355339e-07
3.49962959e-09
6.63753593e-07
3.61131294e-09
6.63156013e-07
3.55894525e-09
6.62589185e-07
3.35773475e-09
6.62076694e-07
3.02817699e-09
6.6163839e-07
2.5937906e-09
6.61288802e-07
2.08658496e-09
6.6103425e-07
1.55494717e-09
6.60869672e-07
1.06510032e-09
6.60777082e-07
6.9138048e-10
6.60727412e-07
4.98024494e-10
6.60685185e-07
5.21093457e-10
6.60613615e-07
7.58821758e-10
6.60480531e-07
1.17214038e-09
6.60264179e-07
1.69436096e-09
6.59956552e-07
2.2464779e-09
6.59563495e-07
2.7526272e-09
6.59102274e-07
3.15154246e-09
6.58597862e-07
3.40222038e-09
6.58079074e-07
3.48439424e-09
6.57575348e-07
3.39576768e-09
6.57114403e-07
3.14819952e-09
6.56720558e-07
2.76467097e-09
6.56413247e-07
2.27800717e-09
6.56205301e-07
1.73112033e-09
6.56100831e-07
1.17721624e-09
6.56093148e-07
6.77676012e-10
6.56164152e-07
2.95584398e-10
6.56287375e-07
8.43854914e-11
6.56431215e-07
7.71155751e-11
6.56561736e-07
2.77497276e-10
6.56647923e-07
6.5556377e-10
6.5666798e-07
1.15082852e-09
6.56613349e-07
1.68549275e-09
6.56489576e-07
2.18212914e-09
6.56313147e-07
2.58192345e-09
6.56105951e-07
2.85661883e-09
6.5588927e-07
3.01082965e-09
6.55678941e-07
3.07482834e-09
6.55482927e-07
3.09106359e-09
6.55301554e-07
3.09974263e-09
6.55129764e-07
3.12849723e-09
6.54960138e-07
3.1887732e-09
6.54785516e-07
3.27847013e-09
6.54600493e-07
3.38805699e-09
6.54401729e-07
3.50679428e-09
6.54187449e-07
3.62669877e-09
6.53956705e-07
3.74361398e-09
6.53708797e-07
3.85618365e-09
6.53443043e-07
3.96409683e-09
6.53158813e-07
4.06670422e-09
6.52855702e-07
4.16245029e-09
6.52533687e-07
4.24898668e-09
6.52193217e-07
4.32358254e-09
6.51835224e-07
4.38349932e-09
6.51461098e-07
4.42619032e-09
6.51072647e-07
4.44934073e-09
6.50672065e-07
4.45084278e-09
6.50261906e-07
4.42877246e-09
6.4984506e-07
4.38138373e-09
6.49424732e-07
4.30713802e-09
6.4900441e-07
4.20473068e-09
6.48587832e-07
4.07310324e-09
6.48178961e-07
3.91145851e-09
6.47781942e-07
3.71926024e-09
6.47401078e-07
3.49622224e-09
6.47040791e-07
3.24230687e-09
6.46705587e-07
2.95771542e-09
6.4640003e-07
2.64287481e-09
6.46128706e-07
2.29843735e-09
6.45896198e-07
1.9252786e-09
6.45707031e-07
1.52450588e-09
6.45565527e-07
1.09745456e-09
6.45476375e-07
6.45682586e-10
6.45446516e-07
1.70619446e-10
6.45477181e-07
-3.24147853e-10
6.45572956e-07
-8.36829949e-10
6.45737249e-07
-1.36444046e-09
6.45973176e-07
-1.90391578e-09
6.46283143e-07
-2.45151886e-09
6.46668818e-07
-3.00306304e-09
6.47131115e-07
-3.55394448e-09
6.47670108e-07
-4.09913504e-09
6.48284939e-07
-4.63325279e-09
6.48973742e-07
-5.15065552e-09
6.49733601e-07
-5.64556406e-09
6.50560539e-07
-6.11220307e-09
6.51449531e-07
-6.54494892e-09
6.52394564e-07
-6.93850389e-09
6.53388723e-07
-7.28806333e-09
6.5442431e-07
-7.58946117e-09
6.55493e-07
-7.83931832e-09
6.56586012e-07
-8.0351542e-09
6.57694303e-07
-8.17545118e-09
6.58808768e-07
-8.25970682e-09
6.59920446e-07
-8.28842482e-09
6.61020709e-07
-8.26308394e-09
6.62101436e-07
-8.18604775e-09
6.63155165e-07
-8.06048219e-09
6.64175203e-07
-7.89020827e-09
6.65155719e-07
-7.6795774e-09
6.66091788e-07
-7.43331621e-09
6.66979415e-07
-7.15638834e-09
6.67815522e-07
-6.85384288e-09
6.68597919e-07
-6.53069953e-09
6.69325242e-07
-6.19183682e-09
6.69996891e-07
-5.84188939e-09
6.70612948e-07
-5.48518435e-09
6.71174094e-07
-5.12568487e-09
6.71681519e-07
-4.76694392e-09
6.72136845e-07
-4.41208986e-09
6.72542044e-07
-4.06381644e-09
6.72899365e-07
-3.724383e-09
6.73211274e-07
-3.3956417e-09
6.73480395e-07
-3.07906135e-09
6.73709464e-07
-2.77576524e-09
6.73901281e-07
-2.48656594e-09
6.74058641e-07
-2.21201051e-09
6.74184296e-07
-1.95240886e-09
6.74280929e-07
-1.7078613e-09
6.74351131e-07
-1.47829995e-09
6.7439739e-07
-1.26351662e-09
6.74422122e-07
-1.06316724e-09
6.74427599e-07
-8.7681652e-10
6.74415957e-07
-7.03980763e-10
6.74389314e-07
-5.44161608e-10
6.74349963e-07
-3.96884441e-10
6.74299549e-07
-2.61751703e-10
6.74239466e-07
-1.38336653e-10
6.74169762e-07
-2.496167e-11
6.7409069e-07
7.7342201e-11
6.74006533e-07
1.70084994e-10
6.7391664e-07
2.53034207e-10
6.73822026e-07
3.26797107e-10
6.73723312e-07
3.9208703e-10
6.73620996e-07
4.49514567e-10
6.73515648e-07
4.99734655e-10
6.73407847e-07
5.4339451e-10
6.73298137e-07
5.81080702e-10
6.7318702e-07
6.13328242e-10
6.73074961e-07
6.40636245e-10
6.72962384e-07
6.63469938e-10
6.72849667e-07
6.82257334e-10
6.72737151e-07
6.9738573e-10
6.72625137e-07
7.09202373e-10
6.72513902e-07
7.1801974e-10
6.72403696e-07
7.24119819e-10
6.72294745e-07
7.27757372e-10
6.72187251e-07
7.29165049e-10
6.72081391e-07
7.28556346e-10
6.71977317e-07
7.26126604e-10
6.71875158e-07
7.22055886e-10
6.71775022e-07
7.16509405e-10
6.71676997e-07
7.09639223e-10
6.71581155e-07
7.01583784e-10
6.71487555e-07
6.92470615e-10
6.71396245e-07
6.82415226e-10
6.7130726e-07
6.71523068e-10
6.71220631e-07
6.59889379e-10
6.7113638e-07
6.47600468e-10
6.71054523e-07
6.34733194e-10
6.70975074e-07
6.21356657e-10
6.70898039e-07
6.07532826e-10
6.70823424e-07
5.93316262e-10
6.70751229e-07
5.78755773e-10
6.70681453e-07
5.63895009e-10
6.70614092e-07
5.48772168e-10
6.70549138e-07
5.33421404e-10
6.70486585e-07
5.17873188e-10
6.70426422e-07
5.02153774e-10
6.7036864e-07
4.86286295e-10
6.70313225e-07
4.70290276e-10
6.70260168e-07
4.54182116e-10
6.70209454e-07
4.37974072e-10
6.70161072e-07
4.21675238e-10
6.70115008e-07
4.05289246e-10
6.70071248e-07
3.88823354e-10
6.70029778e-07
3.72241552e-10
6.69990547e-07
3.55693615e-10
6.69953597e-07
3.38454847e-10
6.69918314e-07
3.23879198e-10
2.97003337e-10
6.66677238e-07
-2.82021258e-11
6.66677819e-07
1.23495201e-10
6.66626772e-07
5.35595604e-10
6.66489276e-07
1.15029141e-09
6.66246094e-07
1.86986251e-09
6.65894568e-07
2.59416256e-09
6.65445135e-07
3.24048128e-09
6.64917087e-07
3.74906832e-09
6.64335451e-07
4.08101982e-09
6.63728271e-07
4.21823408e-09
6.63123873e-07
4.16308059e-09
6.62548759e-07
3.93258276e-09
6.62026574e-07
3.55009514e-09
6.61577468e-07
3.04262315e-09
6.61216643e-07
2.44713143e-09
6.60951559e-07
1.81974548e-09
6.60778496e-07
1.23787545e-09
6.60680619e-07
7.88971965e-10
6.6062854e-07
5.49824469e-10
6.60584428e-07
5.64941397e-10
6.60509897e-07
8.33112246e-10
6.6037342e-07
1.30840049e-09
6.60154674e-07
1.91291126e-09
6.5984643e-07
2.55454674e-09
6.59454278e-07
3.14462047e-09
6.58994597e-07
3.61107705e-09
6.58491383e-07
3.90529275e-09
6.57972773e-07
4.0028654e-09
6.5746794e-07
3.90046147e-09
6.5700469e-07
3.61130889e-09
6.56607613e-07
3.16160526e-09
6.56296439e-07
2.58903477e-09
6.56084381e-07
1.94302201e-09
6.55976619e-07
1.28480793e-09
6.55969189e-07
6.84921863e-10
6.56048013e-07
2.16587965e-10
6.56185142e-07
-5.29469242e-11
6.5634623e-07
-8.41353218e-11
6.5649459e-07
1.28935402e-10
6.56597414e-07
5.5252885e-10
6.56633991e-07
1.11402472e-09
6.56596383e-07
1.72286182e-09
6.56489829e-07
2.28843496e-09
6.56329985e-07
2.74150907e-09
6.56138196e-07
3.04813599e-09
6.55935666e-07
3.21307438e-09
6.55738469e-07
3.27172496e-09
6.55554884e-07
3.27433401e-09
6.55385433e-07
3.26886694e-09
6.55225025e-07
3.28856584e-09
6.55066004e-07
3.34744382e-09
6.54900845e-07
3.44326794e-09
6.54723748e-07
3.56478425e-09
6.54531001e-07
3.69916279e-09
6.54320517e-07
3.83679778e-09
6.54091087e-07
3.97265329e-09
6.538418e-07
4.10507536e-09
6.53571798e-07
4.23369964e-09
6.53280321e-07
4.35778098e-09
6.52966876e-07
4.47549357e-09
6.52631411e-07
4.58405232e-09
6.52274396e-07
4.68019917e-09
6.51896848e-07
4.76065362e-09
6.51500294e-07
4.82235635e-09
6.51086732e-07
4.86252147e-09
6.50658596e-07
4.87860741e-09
6.50218717e-07
4.86828939e-09
6.49770298e-07
4.82945378e-09
6.49316867e-07
4.76023345e-09
6.48862239e-07
4.65903919e-09
6.48410467e-07
4.52457278e-09
6.47965802e-07
4.35583978e-09
6.47532656e-07
4.15214272e-09
6.47115572e-07
3.91306189e-09
6.46719208e-07
3.63844825e-09
6.46348313e-07
3.32841017e-09
6.46007712e-07
2.98329873e-09
6.45702287e-07
2.60370916e-09
6.45436956e-07
2.19048117e-09
6.45216655e-07
1.74470583e-09
6.45046292e-07
1.26774503e-09
6.44930526e-07
7.61406303e-10
6.44872985e-07
2.28139954e-10
6.44879694e-07
-3.30836056e-10
6.44954942e-07
-9.12031923e-10
6.45102887e-07
-1.51230861e-09
6.45326992e-07
-2.127915e-09
6.45630206e-07
-2.75459907e-09
6.46014813e-07
-3.38750921e-09
6.46482267e-07
-4.02121151e-09
6.47033082e-07
-4.64973765e-09
6.47666728e-07
-5.26666249e-09
6.48381535e-07
-5.86520355e-09
6.4917462e-07
-6.43836897e-09
6.50041848e-07
-6.97913142e-09
6.50977832e-07
-7.48061476e-09
6.51975978e-07
-7.93631542e-09
6.53028582e-07
-8.34031866e-09
6.54126974e-07
-8.6874904e-09
6.552617e-07
-8.97367039e-09
6.56422749e-07
-9.19581863e-09
6.57599792e-07
-9.3521015e-09
6.5878244e-07
-9.4419566e-09
6.59960499e-07
-9.46607967e-09
6.611242e-07
-9.42637942e-09
6.62264418e-07
-9.32585876e-09
6.63372843e-07
-9.16850076e-09
6.64442116e-07
-8.95907804e-09
6.65465926e-07
-8.70298735e-09
6.66439054e-07
-8.40605069e-09
6.6735739e-07
-8.07433823e-09
6.68217904e-07
-7.71397968e-09
6.69018594e-07
-7.33102171e-09
6.69758407e-07
-6.93129301e-09
6.70437146e-07
-6.52028403e-09
6.71055368e-07
-6.10307468e-09
6.71614275e-07
-5.68427325e-09
6.72115606e-07
-5.26796984e-09
6.72561535e-07
-4.85772849e-09
6.7295458e-07
-4.45658585e-09
6.73297518e-07
-4.06705944e-09
6.73593307e-07
-3.69118405e-09
6.73845022e-07
-3.33054318e-09
6.7405579e-07
-2.9863149e-09
6.7422874e-07
-2.65931226e-09
6.74366957e-07
-2.35003594e-09
6.74473442e-07
-2.05871617e-09
6.74551095e-07
-1.78534941e-09
6.7460269e-07
-1.52974235e-09
6.74630861e-07
-1.29154685e-09
6.7463811e-07
-1.07028618e-09
6.74626802e-07
-8.65388694e-10
6.74599137e-07
-6.76205741e-10
6.74557093e-07
-5.02017357e-10
6.7450236e-07
-3.42063419e-10
6.7443631e-07
-1.9563227e-10
6.74360255e-07
-6.22427792e-11
6.74277295e-07
5.80023527e-11
6.74187751e-07
1.66847434e-10
6.74092961e-07
2.64839783e-10
6.7399344e-07
3.52520674e-10
6.73889748e-07
4.30452845e-10
6.73782511e-07
4.99286428e-10
6.73672304e-07
5.59682911e-10
6.73559684e-07
6.1231435e-10
6.73445191e-07
6.5784598e-10
6.73329328e-07
6.96902323e-10
6.73212555e-07
7.30058664e-10
6.73095301e-07
7.57847466e-10
6.72977966e-07
7.80761311e-10
6.72860925e-07
7.99255689e-10
6.72744518e-07
8.13750653e-10
6.72629047e-07
8.2463204e-10
6.72514774e-07
8.32253945e-10
6.72401918e-07
8.36938777e-10
6.72290663e-07
8.38977056e-10
6.72181162e-07
8.38631499e-10
6.72073546e-07
8.3614026e-10
6.71967922e-07
8.31718499e-10
6.71864384e-07
8.25562383e-10
6.71763013e-07
8.17850502e-10
6.71663875e-07
8.0874656e-10
6.7156703e-07
7.98399196e-10
6.71472525e-07
7.86945142e-10
6.71380403e-07
7.74508042e-10
6.71290697e-07
7.61200813e-10
6.71203432e-07
7.47125599e-10
6.71118629e-07
7.32375256e-10
6.71036303e-07
7.17032741e-10
6.7095646e-07
7.01172927e-10
6.70879104e-07
6.84863189e-10
6.70804233e-07
6.68162935e-10
6.70731839e-07
6.51125283e-10
6.70661913e-07
6.33797557e-10
6.70594442e-07
6.16220791e-10
6.70529411e-07
5.98431235e-10
6.70466802e-07
5.80460729e-10
6.704066e-07
5.62336165e-10
6.70348786e-07
5.44080837e-10
6.70293343e-07
5.25714053e-10
6.70240255e-07
5.07251869e-10
6.70189505e-07
4.88706177e-10
6.70141077e-07
4.70086008e-10
6.70094954e-07
4.51395309e-10
6.70051119e-07
4.32643045e-10
6.70009554e-07
4.13791103e-10
6.69970224e-07
3.95006307e-10
6.6993321e-07
3.75462127e-10
6.69898188e-07
3.58845822e-10
3.28187917e-10
6.66677458e-07
-3.8922123e-11
6.66679418e-07
1.21524249e-10
6.6662989e-07
5.8513785e-10
6.66493162e-07
1.28706684e-09
6.66249029e-07
2.11403561e-09
6.65893901e-07
2.94932862e-09
6.654375e-07
3.69693328e-09
6.64898946e-07
4.2876861e-09
6.64303784e-07
4.67624833e-09
6.63681194e-07
4.84088873e-09
6.63061028e-07
4.78330997e-09
6.62471472e-07
4.52220169e-09
6.61937792e-07
4.08383949e-09
6.61481465e-07
3.49901881e-09
6.61118335e-07
2.81033836e-09
6.60855477e-07
2.08269402e-09
6.60687885e-07
1.40557267e-09
6.60596861e-07
8.80114566e-10
6.60551964e-07
5.94846675e-10
6.60515578e-07
6.01444015e-10