/*--------------------------------*- C++ -*----------------------------------*\
| =========                 |                                                 |
| \\      /  F ield         | OpenFOAM: The Open Source CFD Toolbox           |
|  \\    /   O peration     | Version:  v2012                                 |
|   \\  /    A nd           | Website:  www.openfoam.com                      |
|    \\/     M anipulation  |                                                 |
\*---------------------------------------------------------------------------*/
FoamFile
{
    version     2.0;
    format      ascii;
    class       volScalarField;
    location    "2.54";
    object      rAU;
}
// * * * * * * * * * * * * * * * * * * * * * * * * * * * * * * * * * * * * * //

dimensions      [0 0 1 0 0 0 0];


internalField   nonuniform List<scalar> 
28416
(
0.000381357488
0.000381361206
0.000381360217
0.00038135911
0.000381358141
0.000381357524
0.00038135742
0.000381357927
0.000381359081
0.000381360845
0.00038136312
0.000381365771
0.000381368651
0.000381371616
0.000381374508
0.000381377143
0.000381379319
0.000381380856
0.000381381655
0.000381381739
0.000381381246
0.000381380402
0.000381379472
0.00038137872
0.00038137836
0.000381378531
0.000381379297
0.000381380653
0.000381382534
0.000381384831
0.000381387395
0.000381390049
0.00038139259
0.000381394821
0.000381396546
0.000381397598
0.000381397874
0.000381397368
0.000381396174
0.000381394485
0.000381392565
0.000381390697
0.00038138912
0.000381387986
0.000381387335
0.000381387108
0.000381387178
0.0003813874
0.000381387652
0.000381387863
0.000381388015
0.000381388126
0.000381388236
0.000381388382
0.000381388591
0.000381388878
0.000381389252
0.000381389716
0.000381390277
0.000381390943
0.000381391722
0.000381392622
0.000381393652
0.000381394815
0.000381396115
0.000381397551
0.000381399124
0.00038140083
0.000381402663
0.000381404618
0.000381406684
0.000381408851
0.000381411105
0.000381413432
0.000381415814
0.000381418233
0.000381420668
0.000381423098
0.000381425503
0.000381427861
0.000381430153
0.000381432365
0.00038143448
0.000381434871
0.000381433375
0.000381431635
0.00038142965
0.000381427427
0.00038142497
0.000381422289
0.000381419392
0.000381416296
0.000381413016
0.000381409572
0.000381405986
0.000381402282
0.000381398485
0.000381394625
0.000381390726
0.000381386818
0.000381382927
0.000381379078
0.000381375298
0.000381371609
0.000381368034
0.000381364589
0.000381361293
0.000381358159
0.000381355197
0.000381352416
0.000381349823
0.00038134742
0.000381345207
0.000381343186
0.000381341351
0.000381339698
0.000381338223
0.000381336919
0.000381335777
0.000381334792
0.000381333955
0.000381333257
0.000381332692
0.000381332251
0.000381331926
0.000381331706
0.000381331585
0.000381331551
0.000381331594
0.000381331708
0.000381331884
0.000381332115
0.000381332396
0.000381332719
0.000381333078
0.000381333466
0.000381333876
0.000381334299
0.000381334728
0.000381335153
0.000381335507
0.000381335581
0.000381335493
0.000381335472
0.00038133551
0.000381335597
0.000381335728
0.000381335897
0.000381336099
0.000381336329
0.000381336583
0.000381336858
0.00038133715
0.000381337455
0.000381337773
0.0003813381
0.000381338435
0.000381338777
0.000381339123
0.000381339472
0.000381339824
0.000381340178
0.000381340531
0.000381340884
0.000381341235
0.000381341584
0.000381341928
0.00038134227
0.000381342607
0.000381342938
0.000381343265
0.000381343585
0.000381343899
0.000381344207
0.000381344508
0.000381344802
0.00038134509
0.00038134537
0.000381345642
0.000381345907
0.000381346165
0.000381346415
0.000381346657
0.000381346891
0.000381347117
0.000381347335
0.000381347544
0.000381347747
0.000381347932
0.000381352493
0.000381354266
0.000381358154
0.000381357382
0.000381356555
0.000381355933
0.000381355716
0.000381356025
0.000381356911
0.000381358363
0.000381360316
0.000381362656
0.000381365252
0.000381367966
0.000381370666
0.000381373219
0.000381375477
0.000381377291
0.000381378541
0.000381379177
0.000381379246
0.000381378894
0.000381378338
0.000381377819
0.000381377559
0.000381377723
0.000381378398
0.000381379595
0.000381381263
0.000381383305
0.000381385595
0.000381387991
0.000381390339
0.000381392483
0.00038139427
0.000381395567
0.000381396275
0.000381396351
0.000381395832
0.00038139484
0.000381393567
0.000381392243
0.00038139109
0.000381390277
0.000381389885
0.000381389904
0.000381390245
0.000381390779
0.000381391377
0.000381391945
0.000381392438
0.000381392857
0.000381393232
0.000381393603
0.000381394006
0.000381394463
0.000381394986
0.000381395579
0.000381396244
0.000381396987
0.000381397811
0.000381398724
0.00038139973
0.000381400835
0.000381402038
0.000381403341
0.000381404742
0.000381406237
0.000381407821
0.000381409487
0.000381411228
0.000381413033
0.00038141489
0.000381416787
0.000381418709
0.00038142064
0.000381422565
0.000381424465
0.000381426322
0.000381428119
0.000381429836
0.000381431454
0.000381432954
0.000381434304
0.00038143385
0.000381432158
0.000381430212
0.000381428006
0.000381425543
0.000381422826
0.000381419866
0.000381416673
0.000381413265
0.00038140966
0.00038140588
0.000381401952
0.000381397902
0.000381393759
0.000381389557
0.000381385325
0.000381381096
0.000381376903
0.000381372773
0.000381368738
0.000381364821
0.000381361049
0.000381357441
0.000381354016
0.000381350786
0.000381347764
0.000381344956
0.000381342368
0.00038134
0.000381337851
0.000381335918
0.000381334194
0.000381332673
0.000381331347
0.000381330204
0.000381329235
0.000381328431
0.000381327779
0.000381327269
0.000381326891
0.000381326635
0.000381326489
0.000381326442
0.000381326485
0.000381326609
0.000381326803
0.00038132706
0.00038132737
0.000381327727
0.000381328124
0.000381328554
0.000381329012
0.00038132949
0.000381329984
0.000381330489
0.000381331002
0.000381331451
0.000381331634
0.000381331681
0.000381331779
0.000381331921
0.000381332102
0.000381332317
0.000381332561
0.000381332831
0.000381333124
0.000381333436
0.000381333763
0.000381334103
0.000381334454
0.000381334812
0.000381335178
0.000381335547
0.000381335919
0.000381336294
0.000381336669
0.000381337043
0.000381337415
0.000381337785
0.000381338151
0.000381338514
0.000381338872
0.000381339224
0.000381339571
0.000381339913
0.000381340247
0.000381340575
0.000381340896
0.000381341209
0.000381341515
0.000381341813
0.000381342104
0.000381342386
0.000381342661
0.000381342927
0.000381343185
0.000381343435
0.000381343677
0.00038134391
0.000381344135
0.000381344352
0.000381344561
0.00038134476
0.000381344953
0.000381345137
0.000381345308
0.000381349842
0.000381354284
0.000381358176
0.000381357245
0.000381356131
0.000381355144
0.000381354542
0.000381354494
0.000381355088
0.000381356337
0.000381358188
0.000381360532
0.00038136323
0.000381366135
0.000381369106
0.00038137199
0.000381374614
0.000381376782
0.000381378324
0.000381379146
0.000381379267
0.000381378835
0.000381378087
0.000381377299
0.000381376735
0.000381376603
0.00038137703
0.000381378057
0.00038137965
0.000381381718
0.000381384133
0.000381386743
0.000381389377
0.00038139186
0.000381394008
0.000381395651
0.000381396648
0.000381396918
0.000381396474
0.000381395427
0.000381393981
0.000381392398
0.000381390946
0.000381389842
0.000381389214
0.000381389073
0.000381389334
0.000381389852
0.000381390469
0.000381391064
0.000381391571
0.000381391979
0.000381392322
0.000381392644
0.00038139299
0.000381393389
0.000381393856
0.000381394397
0.000381395015
0.000381395715
0.000381396503
0.000381397385
0.00038139837
0.000381399462
0.000381400665
0.000381401979
0.000381403403
0.000381404935
0.00038140657
0.000381408301
0.000381410121
0.000381412019
0.000381413984
0.000381416005
0.000381418065
0.000381420148
0.00038142224
0.000381424322
0.000381426373
0.000381428376
0.000381430308
0.000381432149
0.00038143388
0.000381435488
0.000381434891
0.000381433021
0.000381430876
0.000381428453
0.000381425756
0.000381422792
0.000381419569
0.000381416103
0.000381412411
0.000381408515
0.000381404439
0.000381400213
0.000381395867
0.000381391435
0.000381386953
0.000381382456
0.000381377979
0.00038137356
0.000381369231
0.000381365023
0.000381360965
0.000381357084
0.000381353399
0.00038134993
0.00038134669
0.000381343689
0.000381340931
0.000381338421
0.000381336155
0.00038133413
0.000381332341
0.000381330777
0.000381329428
0.000381328284
0.00038132733
0.000381326555
0.000381325946
0.00038132549
0.000381325173
0.000381324982
0.000381324908
0.000381324937
0.000381325057
0.000381325259
0.000381325532
0.000381325866
0.000381326254
0.000381326689
0.000381327161
0.000381327665
0.000381328195
0.000381328744
0.000381329309
0.00038132988
0.000381330452
0.000381331014
0.000381331179
0.000381331171
0.000381331215
0.000381331311
0.000381331452
0.000381331634
0.000381331852
0.000381332101
0.000381332376
0.000381332675
0.000381332993
0.000381333328
0.000381333676
0.000381334036
0.000381334403
0.000381334778
0.000381335157
0.000381335538
0.000381335922
0.000381336307
0.00038133669
0.000381337071
0.000381337451
0.000381337827
0.0003813382
0.000381338568
0.00038133893
0.000381339287
0.000381339638
0.000381339982
0.000381340319
0.00038134065
0.000381340973
0.000381341287
0.000381341595
0.000381341895
0.000381342186
0.00038134247
0.000381342746
0.000381343013
0.000381343271
0.000381343522
0.000381343765
0.000381343998
0.000381344224
0.000381344442
0.000381344651
0.000381344852
0.000381345046
0.000381345224
0.000381349768
0.000381354244
0.000381358126
0.00038135695
0.00038135547
0.000381354067
0.000381353066
0.000381352688
0.000381353051
0.000381354182
0.000381356034
0.000381358486
0.000381361383
0.000381364557
0.000381367846
0.000381371073
0.000381374033
0.000381376496
0.000381378247
0.000381379158
0.000381379225
0.000381378594
0.000381377537
0.000381376384
0.000381375465
0.000381375043
0.000381375283
0.000381376243
0.000381377893
0.000381380129
0.000381382801
0.000381385732
0.000381388724
0.000381391567
0.000381394045
0.000381395952
0.000381397119
0.000381397445
0.000381396925
0.000381395674
0.000381393922
0.00038139198
0.000381390172
0.000381388771
0.000381387933
0.000381387682
0.00038138792
0.000381388473
0.000381389151
0.000381389801
0.00038139034
0.000381390751
0.00038139107
0.000381391355
0.000381391657
0.000381392013
0.000381392442
0.000381392953
0.000381393548
0.000381394233
0.000381395016
0.000381395904
0.000381396907
0.000381398031
0.000381399281
0.000381400658
0.000381402163
0.000381403793
0.000381405544
0.000381407408
0.000381409379
0.000381411446
0.000381413596
0.000381415818
0.000381418095
0.000381420409
0.000381422746
0.000381425084
0.000381427405
0.000381429688
0.000381431911
0.000381434053
0.000381436092
0.000381437994
0.000381437392
0.000381435341
0.00038143299
0.000381430335
0.00038142738
0.000381424131
0.000381420599
0.000381416799
0.000381412753
0.000381408485
0.000381404022
0.000381399399
0.000381394651
0.000381389816
0.000381384938
0.000381380055
0.000381375211
0.000381370447
0.000381365801
0.000381361308
0.000381357001
0.00038135291
0.000381349056
0.000381345459
0.000381342132
0.000381339084
0.000381336319
0.000381333838
0.000381331635
0.000381329704
0.000381328035
0.000381326615
0.000381325429
0.000381324465
0.000381323703
0.000381323129
0.000381322727
0.000381322481
0.000381322374
0.000381322392
0.000381322521
0.000381322749
0.00038132306
0.000381323446
0.000381323895
0.000381324395
0.000381324941
0.000381325521
0.00038132613
0.000381326761
0.000381327407
0.000381328062
0.00038132872
0.000381329374
0.000381330027
0.000381330382
0.000381330354
0.000381330381
0.000381330459
0.000381330586
0.000381330755
0.000381330963
0.000381331205
0.000381331477
0.000381331774
0.000381332094
0.000381332432
0.000381332785
0.000381333153
0.00038133353
0.000381333916
0.000381334308
0.000381334705
0.000381335105
0.000381335506
0.000381335907
0.000381336308
0.000381336705
0.000381337101
0.000381337492
0.000381337879
0.000381338261
0.000381338637
0.000381339007
0.000381339371
0.000381339728
0.000381340077
0.00038134042
0.000381340755
0.000381341081
0.0003813414
0.000381341711
0.000381342013
0.000381342308
0.000381342594
0.000381342871
0.00038134314
0.000381343401
0.000381343653
0.000381343896
0.000381344132
0.000381344358
0.000381344577
0.000381344787
0.000381344991
0.000381345179
0.00038134974
0.000381354204
0.000381358135
0.00038135677
0.000381354971
0.000381353176
0.000381351776
0.000381351039
0.000381351118
0.000381352064
0.000381353841
0.00038135633
0.000381359369
0.00038136278
0.000381366385
0.000381369987
0.000381373348
0.000381376189
0.000381378243
0.000381379334
0.000381379437
0.000381378703
0.000381377424
0.00038137597
0.000381374716
0.000381373975
0.000381373954
0.000381374747
0.000381376339
0.000381378631
0.00038138147
0.000381384663
0.000381387993
0.000381391226
0.000381394109
0.000381396393
0.000381397855
0.000381398145
0.000381397537
0.000381396485
0.000381394498
0.000381392243
0.000381390092
0.000381388366
0.000381387265
0.000381386837
0.000381386981
0.000381387505
0.000381388188
0.000381388846
0.000381389376
0.000381389752
0.000381390013
0.000381390222
0.000381390442
0.000381390717
0.00038139107
0.000381391511
0.000381392045
0.000381392676
0.000381393415
0.000381394271
0.000381395255
0.000381396375
0.000381397638
0.000381399047
0.0003814006
0.000381402298
0.000381404135
0.000381406106
0.000381408202
0.000381410412
0.000381412724
0.000381415126
0.000381417599
0.000381420128
0.000381422696
0.000381425281
0.000381427862
0.00038143042
0.000381432931
0.00038143537
0.000381437715
0.000381439941
0.000381439527
0.000381437308
0.00038143476
0.000381431879
0.00038142867
0.00038142514
0.000381421299
0.000381417166
0.000381412763
0.000381408118
0.000381403262
0.000381398234
0.000381393075
0.000381387829
0.000381382545
0.00038137727
0.000381372053
0.000381366941
0.000381361978
0.000381357206
0.00038135266
0.000381348373
0.000381344368
0.000381340667
0.000381337282
0.000381334221
0.000381331484
0.00038132907
0.00038132697
0.000381325172
0.000381323664
0.000381322427
0.000381321443
0.000381320693
0.000381320157
0.000381319815
0.000381319648
0.000381319636
0.000381319761
0.000381320005
0.000381320355
0.000381320793
0.000381321307
0.000381321885
0.000381322514
0.000381323184
0.000381323887
0.000381324615
0.000381325359
0.000381326115
0.000381326876
0.000381327636
0.000381328395
0.000381329146
0.000381329664
0.000381329683
0.000381329671
0.000381329716
0.000381329813
0.000381329959
0.000381330146
0.000381330373
0.000381330633
0.000381330923
0.000381331237
0.000381331575
0.000381331931
0.000381332302
0.000381332686
0.00038133308
0.000381333482
0.00038133389
0.000381334301
0.000381334715
0.00038133513
0.000381335544
0.000381335958
0.000381336368
0.000381336777
0.00038133718
0.00038133758
0.000381337973
0.000381338362
0.000381338743
0.000381339118
0.000381339486
0.000381339846
0.0003813402
0.000381340545
0.000381340881
0.00038134121
0.000381341531
0.000381341842
0.000381342146
0.000381342441
0.000381342728
0.000381343005
0.000381343275
0.000381343536
0.000381343788
0.000381344033
0.000381344269
0.000381344496
0.000381344715
0.000381344928
0.000381345122
0.000381349694
0.000381354163
0.000381358136
0.00038135657
0.000381354438
0.000381352243
0.000381350438
0.000381349346
0.000381349156
0.000381349941
0.000381351673
0.000381354231
0.00038135744
0.000381361105
0.00038136503
0.000381368992
0.000381372723
0.000381375901
0.000381378218
0.000381379455
0.00038137956
0.00038137868
0.000381377138
0.000381375353
0.000381373756
0.000381372713
0.000381372473
0.000381373153
0.000381374748
0.000381377159
0.000381380217
0.000381383711
0.000381387399
0.000381391014
0.00038139427
0.000381396883
0.000381398605
0.000381398258
0.000381397459
0.000381397139
0.000381395044
0.000381392439
0.000381389907
0.000381387828
0.000381386449
0.000381385835
0.000381385884
0.00038138638
0.00038138707
0.00038138774
0.000381388263
0.000381388605
0.000381388805
0.000381388935
0.000381389069
0.000381389257
0.000381389528
0.000381389895
0.000381390363
0.00038139094
0.000381391637
0.000381392465
0.000381393438
0.000381394566
0.000381395856
0.000381397314
0.000381398939
0.000381400731
0.000381402686
0.000381404797
0.000381407057
0.000381409454
0.000381411974
0.000381414605
0.000381417328
0.000381420124
0.000381422976
0.000381425861
0.000381428758
0.000381431645
0.000381434497
0.000381437289
0.000381439995
0.000381442585
0.000381442592
0.000381440206
0.000381437456
0.000381434338
0.000381430856
0.000381427015
0.000381422828
0.000381418314
0.000381413498
0.00038140841
0.000381403087
0.000381397574
0.000381391917
0.00038138617
0.000381380388
0.000381374628
0.000381368946
0.000381363398
0.000381358036
0.000381352907
0.000381348052
0.000381343508
0.000381339301
0.000381335453
0.000381331975
0.000381328873
0.000381326146
0.000381323788
0.000381321785
0.000381320122
0.00038131878
0.000381317735
0.000381316965
0.000381316446
0.000381316152
0.00038131606
0.000381316146
0.000381316388
0.000381316764
0.000381317255
0.000381317844
0.000381318513
0.000381319247
0.000381320035
0.000381320862
0.000381321719
0.000381322597
0.000381323488
0.000381324384
0.00038132528
0.00038132617
0.000381327048
0.000381327911
0.000381328645
0.000381328764
0.000381328726
0.000381328752
0.000381328836
0.000381328972
0.000381329155
0.000381329378
0.000381329639
0.000381329932
0.000381330252
0.000381330596
0.000381330961
0.000381331344
0.00038133174
0.000381332148
0.000381332565
0.000381332989
0.000381333419
0.000381333852
0.000381334286
0.000381334721
0.000381335155
0.000381335587
0.000381336015
0.00038133644
0.00038133686
0.000381337275
0.000381337683
0.000381338086
0.000381338481
0.000381338869
0.00038133925
0.000381339623
0.000381339988
0.000381340345
0.000381340693
0.000381341034
0.000381341365
0.000381341688
0.000381342002
0.000381342308
0.000381342605
0.000381342892
0.000381343172
0.000381343443
0.000381343704
0.000381343958
0.000381344203
0.000381344439
0.000381344667
0.000381344889
0.000381345092
0.00038134968
0.000381354121
0.000381358141
0.000381356379
0.000381353919
0.000381351324
0.000381349112
0.000381347658
0.000381347184
0.000381347788
0.000381349455
0.000381352065
0.000381355435
0.000381359354
0.00038136361
0.00038136796
0.000381372101
0.000381375667
0.000381378294
0.000381379719
0.000381379864
0.000381378874
0.000381377096
0.000381374991
0.000381373046
0.000381371679
0.000381371185
0.000381371712
0.000381373272
0.000381375769
0.000381379027
0.000381382819
0.000381386881
0.000381390917
0.000381394606
0.000381397614
0.000381399632
0.000381398201
0.000381397228
0.000381397342
0.000381395873
0.000381392933
0.000381390036
0.000381387609
0.000381385941
0.000381385121
0.000381385049
0.000381385488
0.000381386154
0.000381386803
0.000381387286
0.000381387561
0.000381387668
0.000381387687
0.000381387701
0.000381387771
0.00038138793
0.000381388193
0.000381388568
0.000381389064
0.000381389694
0.000381390472
0.000381391413
0.000381392531
0.000381393835
0.00038139533
0.000381397017
0.000381398897
0.000381400966
0.000381403215
0.000381405638
0.000381408221
0.000381410951
0.000381413812
0.000381416786
0.000381419855
0.000381422998
0.000381426193
0.000381429417
0.000381432648
0.000381435858
0.000381439022
0.000381442112
0.000381445099
0.000381445812
0.000381443269
0.000381440324
0.000381436971
0.000381433212
0.000381429053
0.000381424505
0.000381419589
0.000381414332
0.000381408767
0.000381402937
0.000381396892
0.000381390687
0.000381384383
0.000381378047
0.000381371745
0.000381365545
0.000381359511
0.000381353705
0.000381348182
0.000381342989
0.000381338168
0.000381333747
0.00038132975
0.000381326186
0.000381323058
0.000381320363
0.000381318089
0.000381316217
0.000381314725
0.000381313587
0.000381312776
0.00038131226
0.000381312011
0.000381311999
0.000381312192
0.000381312567
0.000381313094
0.00038131375
0.000381314513
0.000381315364
0.000381316284
0.000381317256
0.000381318267
0.000381319305
0.000381320358
0.000381321418
0.000381322477
0.000381323527
0.000381324564
0.000381325582
0.00038132658
0.000381327559
0.000381327873
0.000381327804
0.000381327807
0.000381327873
0.000381327994
0.000381328167
0.000381328385
0.000381328642
0.000381328936
0.00038132926
0.000381329611
0.000381329984
0.000381330377
0.000381330786
0.000381331208
0.000381331641
0.000381332081
0.000381332527
0.000381332978
0.000381333431
0.000381333884
0.000381334337
0.000381334788
0.000381335237
0.000381335681
0.000381336122
0.000381336557
0.000381336986
0.000381337409
0.000381337825
0.000381338234
0.000381338635
0.000381339028
0.000381339413
0.00038133979
0.000381340158
0.000381340516
0.000381340867
0.000381341209
0.000381341541
0.000381341866
0.00038134218
0.000381342486
0.000381342783
0.000381343072
0.000381343352
0.000381343622
0.000381343885
0.000381344138
0.000381344383
0.00038134462
0.000381344851
0.00038134506
0.000381349659
0.000381354077
0.000381358148
0.000381356188
0.000381353397
0.000381350398
0.000381347775
0.000381345954
0.000381345195
0.000381345621
0.00038134723
0.000381349901
0.000381353442
0.000381357628
0.000381362225
0.000381366966
0.000381371512
0.000381375451
0.000381378371
0.000381379966
0.000381380133
0.000381379019
0.000381376996
0.00038137457
0.000381372282
0.000381370605
0.000381369874
0.00038137027
0.000381371819
0.000381374425
0.000381377905
0.000381382013
0.00038138646
0.000381390918
0.000381395027
0.000381398418
0.000381400314
0.000381398132
0.000381396965
0.000381397029
0.00038139688
0.000381393594
0.0003813903
0.000381387494
0.000381385511
0.000381384466
0.000381384255
0.000381384622
0.000381385252
0.000381385868
0.0003813863
0.000381386492
0.000381386488
0.000381386377
0.00038138625
0.000381386179
0.000381386202
0.000381386338
0.000381386599
0.000381386994
0.000381387539
0.000381388253
0.000381389152
0.000381390253
0.000381391566
0.000381393099
0.000381394854
0.000381396833
0.000381399029
0.000381401436
0.000381404046
0.000381406845
0.000381409817
0.000381412947
0.000381416214
0.000381419597
0.000381423076
0.000381426626
0.000381430223
0.000381433843
0.000381437459
0.000381441043
0.000381444566
0.000381447995
0.000381449757
0.000381447064
0.000381443925
0.000381440332
0.000381436283
0.000381431783
0.000381426842
0.00038142148
0.000381415727
0.00038140962
0.000381403207
0.000381396545
0.0003813897
0.000381382744
0.000381375756
0.000381368814
0.000381361998
0.000381355389
0.000381349056
0.000381343066
0.000381337474
0.000381332327
0.000381327655
0.000381323483
0.00038131982
0.000381316665
0.000381314009
0.000381311834
0.000381310114
0.00038130882
0.000381307918
0.000381307372
0.000381307145
0.0003813072
0.000381307502
0.000381308014
0.000381308707
0.000381309549
0.000381310513
0.000381311573
0.000381312708
0.000381313899
0.000381315128
0.000381316381
0.000381317644
0.000381318907
0.000381320162
0.000381321401
0.000381322617
0.000381323807
0.000381324965
0.000381326085
0.000381326741
0.000381326676
0.00038132666
0.000381326716
0.000381326834
0.000381327008
0.000381327231
0.000381327498
0.000381327802
0.000381328139
0.000381328505
0.000381328896
0.000381329306
0.000381329735
0.000381330177
0.00038133063
0.000381331093
0.000381331562
0.000381332035
0.000381332511
0.000381332988
0.000381333465
0.00038133394
0.000381334412
0.000381334881
0.000381335344
0.000381335803
0.000381336254
0.0003813367
0.000381337139
0.00038133757
0.000381337992
0.000381338408
0.000381338814
0.000381339211
0.000381339601
0.000381339981
0.000381340351
0.000381340713
0.000381341066
0.000381341409
0.000381341744
0.000381342069
0.000381342385
0.000381342692
0.00038134299
0.000381343279
0.000381343558
0.00038134383
0.000381344092
0.000381344346
0.000381344591
0.000381344831
0.000381345048
0.000381349662
0.000381354033
0.000381358156
0.000381355996
0.000381352871
0.000381349464
0.000381346424
0.000381344229
0.000381343179
0.00038134342
0.000381344966
0.000381347697
0.000381351411
0.000381355868
0.000381360817
0.000381365963
0.000381370933
0.000381375268
0.000381378505
0.000381380292
0.000381380498
0.00038137927
0.000381377005
0.000381374256
0.000381371618
0.000381369619
0.000381368641
0.000381368896
0.000381370428
0.000381373145
0.000381376854
0.000381381294
0.00038138615
0.000381391063
0.000381395635
0.000381399444
0.000381400688
0.000381398152
0.000381396786
0.000381396782
0.000381397714
0.000381394472
0.000381390791
0.000381387609
0.000381385305
0.00038138402
0.000381383654
0.000381383928
0.000381384498
0.000381385056
0.000381385406
0.000381385487
0.00038138534
0.000381385064
0.000381384763
0.000381384516
0.00038138437
0.000381384348
0.000381384464
0.000381384731
0.000381385167
0.000381385793
0.000381386632
0.000381387702
0.000381389015
0.000381390581
0.000381392403
0.000381394482
0.000381396813
0.000381399387
0.000381402196
0.000381405223
0.000381408452
0.000381411866
0.000381415441
0.000381419156
0.00038142299
0.000381426915
0.000381430908
0.000381434944
0.000381438993
0.000381443029
0.00038144702
0.000381450933
0.00038145415
0.000381451321
0.000381448
0.000381444171
0.00038143983
0.000381434977
0.000381429621
0.000381423782
0.000381417489
0.000381410783
0.000381403718
0.000381396362
0.000381388789
0.000381381086
0.000381373347
0.000381365667
0.000381358142
0.000381350868
0.000381343929
0.000381337405
0.00038133136
0.000381325846
0.0003813209
0.000381316545
0.000381312787
0.000381309621
0.000381307031
0.000381304992
0.000381303467
0.000381302418
0.000381301802
0.000381301573
0.000381301686
0.000381302096
0.000381302761
0.000381303637
0.000381304691
0.000381305886
0.000381307191
0.000381308578
0.000381310026
0.000381311511
0.000381313016
0.000381314527
0.000381316029
0.000381317514
0.000381318972
0.000381320396
0.000381321781
0.000381323125
0.000381324424
0.00038132536
0.000381325465
0.000381325436
0.000381325484
0.000381325601
0.000381325778
0.000381326009
0.000381326285
0.000381326603
0.000381326956
0.000381327341
0.00038132775
0.000381328182
0.000381328632
0.000381329098
0.000381329575
0.000381330061
0.000381330555
0.000381331053
0.000381331554
0.000381332057
0.000381332559
0.000381333058
0.000381333556
0.000381334049
0.000381334537
0.00038133502
0.000381335497
0.000381335966
0.000381336428
0.000381336882
0.000381337328
0.000381337765
0.000381338194
0.000381338614
0.000381339023
0.000381339425
0.000381339816
0.000381340198
0.000381340571
0.000381340934
0.000381341287
0.000381341632
0.000381341967
0.000381342292
0.000381342607
0.000381342915
0.000381343213
0.000381343501
0.000381343781
0.000381344052
0.000381344314
0.000381344568
0.000381344816
0.000381345039
0.000381349665
0.000381353988
0.000381358163
0.000381355801
0.000381352337
0.000381348517
0.000381345053
0.000381342479
0.000381341131
0.000381341185
0.000381342667
0.000381345462
0.000381349356
0.000381354095
0.000381359406
0.000381364968
0.00038137037
0.000381375105
0.000381378658
0.000381380632
0.000381380873
0.000381379527
0.000381377018
0.000381373946
0.000381370961
0.000381368644
0.000381367426
0.000381367548
0.000381369074
0.000381371915
0.000381375869
0.000381380656
0.000381385938
0.00038139132
0.000381396365
0.000381400612
0.000381401105
0.000381398227
0.000381396642
0.000381396557
0.000381397917
0.000381395589
0.000381391503
0.000381387925
0.000381385281
0.000381383739
0.000381383198
0.000381383362
0.000381383853
0.000381384331
0.000381384578
0.00038138452
0.000381384201
0.000381383729
0.000381383218
0.000381382759
0.000381382408
0.000381382191
0.000381382128
0.000381382233
0.000381382531
0.000381383045
0.000381383803
0.000381384825
0.000381386127
0.00038138772
0.000381389608
0.000381391792
0.000381394268
0.000381397025
0.000381400054
0.000381403336
0.000381406852
0.000381410583
0.000381414504
0.000381418591
0.000381422819
0.000381427162
0.000381431593
0.000381436087
0.000381440616
0.000381445149
0.000381449658
0.000381454106
0.000381458454
0.000381456316
0.000381452823
0.000381448763
0.000381444125
0.000381438903
0.000381433103
0.00038142674
0.000381419847
0.000381412466
0.000381404659
0.000381396503
0.000381388086
0.000381379511
0.000381370892
0.000381362343
0.000381353984
0.000381345928
0.000381338279
0.000381331132
0.000381324563
0.000381318632
0.000381313379
0.000381308827
0.000381304977
0.00038130182
0.000381299328
0.000381297465
0.000381296184
0.000381295434
0.00038129516
0.000381295306
0.000381295816
0.000381296636
0.000381297714
0.000381299003
0.000381300461
0.000381302048
0.00038130373
0.000381305477
0.000381307263
0.000381309067
0.000381310868
0.000381312654
0.000381314411
0.000381316128
0.0003813178
0.000381319419
0.000381320982
0.000381322486
0.000381323747
0.000381324042
0.000381324005
0.000381324053
0.000381324177
0.000381324367
0.000381324615
0.000381324913
0.000381325254
0.000381325634
0.000381326044
0.000381326483
0.000381326945
0.000381327425
0.00038132792
0.000381328429
0.000381328946
0.00038132947
0.000381329999
0.000381330531
0.000381331063
0.000381331595
0.000381332124
0.000381332649
0.000381333171
0.000381333687
0.000381334197
0.0003813347
0.000381335196
0.000381335684
0.000381336163
0.000381336634
0.000381337095
0.000381337547
0.00038133799
0.000381338423
0.000381338846
0.00038133926
0.000381339664
0.000381340057
0.000381340442
0.000381340816
0.00038134118
0.000381341534
0.000381341879
0.000381342214
0.000381342539
0.000381342856
0.000381343162
0.000381343459
0.000381343748
0.000381344028
0.000381344298
0.00038134456
0.000381344816
0.000381345047
0.000381349686
0.000381353943
0.000381358169
0.0003813556
0.000381351793
0.000381347554
0.00038134366
0.000381340698
0.000381339047
0.000381338908
0.000381340324
0.000381343183
0.000381347262
0.000381352291
0.000381357976
0.000381363967
0.000381369814
0.000381374961
0.000381378841
0.000381381012
0.000381381292
0.00038137983
0.000381377076
0.000381373676
0.000381370339
0.000381367701
0.000381366239
0.000381366231
0.000381367756
0.000381370732
0.000381374948
0.000381380106
0.000381385841
0.000381391725
0.000381397276
0.000381401982
0.000381401635
0.000381398397
0.000381396581
0.000381396402
0.00038139779
0.000381396961
0.000381392473
0.000381388495
0.000381385503
0.000381383689
0.000381382956
0.000381382988
0.000381383376
0.000381383749
0.000381383862
0.000381383631
0.000381383102
0.000381382391
0.000381381628
0.000381380913
0.000381380312