/*--------------------------------*- C++ -*----------------------------------*\
| =========                 |                                                 |
| \\      /  F ield         | OpenFOAM: The Open Source CFD Toolbox           |
|  \\    /   O peration     | Version:  v2012                                 |
|   \\  /    A nd           | Website:  www.openfoam.com                      |
|    \\/     M anipulation  |                                                 |
\*---------------------------------------------------------------------------*/
FoamFile
{
    version     2.0;
    format      ascii;
    class       volVectorField;
    location    "2.59";
    object      HbyA;
}
// * * * * * * * * * * * * * * * * * * * * * * * * * * * * * * * * * * * * * //

dimensions      [0 1 -1 0 0 0 0];


internalField   nonuniform List<vector> 
28416
(
(0.100001186 -3.38783864e-06 0)
(0.100005876 3.73241318e-07 0)
(0.10001004 1.68507765e-05 0)
(0.100008159 4.43785895e-05 0)
(0.0999951073 7.94486142e-05 0)
(0.0999685063 0.0001178867 0)
(0.0999281599 0.000155567663 0)
(0.0998752493 0.000188660188 0)
(0.0998120661 0.000213921831 0)
(0.0997417216 0.000229119851 0)
(0.0996676908 0.000233338714 0)
(0.0995933985 0.000226939655 0)
(0.0995219766 0.000211156766 0)
(0.0994561786 0.000187635043 0)
(0.0993983506 0.000158315405 0)
(0.099350316 0.00012575296 0)
(0.0993130777 9.34859216e-05 0)
(0.099286413 6.59560135e-05 0)
(0.0992686043 4.77402873e-05 0)
(0.0992564176 4.23501464e-05 0)
(0.0992454163 5.12876869e-05 0)
(0.09923085 7.37320216e-05 0)
(0.0992088096 0.000106702243 0)
(0.0991768909 0.000145669022 0)
(0.0991342702 0.00018552414 0)
(0.0990816051 0.000221499609 0)
(0.0990208299 0.000249743358 0)
(0.098954724 0.000267585721 0)
(0.0988863965 0.000273625439 0)
(0.098818918 0.00026769797 0)
(0.098755127 0.000250768699 0)
(0.0986975036 0.000224802383 0)
(0.098648045 0.000192653091 0)
(0.0986081653 0.000157950228 0)
(0.0985784848 0.000124888446 0)
(0.0985585747 9.79194943e-05 0)
(0.0985468479 8.1206202e-05 0)
(0.0985405689 7.79530384e-05 0)
(0.0985361812 8.97994402e-05 0)
(0.0985299662 0.000116286234 0)
(0.0985187076 0.000154687872 0)
(0.0985002118 0.000200459601 0)
(0.0984736275 0.000248191054 0)
(0.0984394715 0.00029278576 0)
(0.0983993386 0.000330537312 0)
(0.0983553873 0.000359774046 0)
(0.0983097607 0.000380889749 0)
(0.0982641108 0.000395804052 0)
(0.0982193482 0.000407095076 0)
(0.0981756479 0.000417136714 0)
(0.0981326522 0.000427521302 0)
(0.0980897576 0.000438890554 0)
(0.09804637 0.000451117934 0)
(0.0980020571 0.000463667978 0)
(0.0979565833 0.000475942018 0)
(0.097909865 0.000487487948 0)
(0.0978618962 0.000498050153 0)
(0.0978126888 0.000507510552 0)
(0.0977622457 0.000515796439 0)
(0.0977105631 0.000522812064 0)
(0.0976576475 0.000528414288 0)
(0.0976035332 0.000532422839 0)
(0.0975482934 0.000534644216 0)
(0.0974920437 0.00053489248 0)
(0.0974349407 0.000532999657 0)
(0.0973771806 0.00052881663 0)
(0.0973189978 0.000522212504 0)
(0.0972606642 0.000513074451 0)
(0.0972024884 0.000501308517 0)
(0.0971448143 0.000486841397 0)
(0.0970880193 0.000469622672 0)
(0.0970325124 0.000449627023 0)
(0.0969787323 0.000426856106 0)
(0.0969271464 0.000401339791 0)
(0.0968782502 0.00037313632 0)
(0.096832568 0.000342330581 0)
(0.0967906519 0.000309030386 0)
(0.0967530811 0.000273360001 0)
(0.0967204547 0.000235450834 0)
(0.0966933774 0.000195434636 0)
(0.0966724319 0.000153439072 0)
(0.0966581634 0.000109589211 0)
(0.096650983 6.40286683e-05 0)
(0.0966507738 1.70533735e-05 0)
(0.096658269 -3.03009174e-05 0)
(0.0966750525 -7.81560149e-05 0)
(0.0967015365 -0.000126830266 0)
(0.0967375751 -0.000176132623 0)
(0.096783301 -0.000225751024 0)
(0.0968388396 -0.000275371398 0)
(0.0969041677 -0.000324635019 0)
(0.0969791754 -0.00037314758 0)
(0.0970636691 -0.000420497363 0)
(0.0971573463 -0.000466257078 0)
(0.0972597942 -0.000509986152 0)
(0.0973704963 -0.000551239379 0)
(0.0974888387 -0.00058957951 0)
(0.0976141176 -0.000624592327 0)
(0.0977455491 -0.000655902414 0)
(0.097882279 -0.000683187368 0)
(0.0980233941 -0.000706188733 0)
(0.098167935 -0.000724718997 0)
(0.0983149107 -0.000738664943 0)
(0.0984633151 -0.000747988087 0)
(0.0986121447 -0.000752722946 0)
(0.0987604167 -0.000752973632 0)
(0.0989071853 -0.00074890899 0)
(0.0990515576 -0.000740756333 0)
(0.0991927065 -0.000728793855 0)
(0.0993298809 -0.000713341943 0)
(0.0994624138 -0.000694753703 0)
(0.0995897269 -0.000673405159 0)
(0.0997113338 -0.000649685532 0)
(0.0998268393 -0.000623987983 0)
(0.099935938 -0.00059670118 0)
(0.10003841 -0.000568201815 0)
(0.100134117 -0.000538848279 0)
(0.100222993 -0.000508975557 0)
(0.100305035 -0.00047889011 0)
(0.100380299 -0.000448865217 0)
(0.100448896 -0.000419138888 0)
(0.10051098 -0.000389914513 0)
(0.100566749 -0.000361362375 0)
(0.100616427 -0.000333621675 0)
(0.100660257 -0.000306799389 0)
(0.10069849 -0.000280957203 0)
(0.100731424 -0.000256109448 0)
(0.100759424 -0.00023225534 0)
(0.100782883 -0.000209411777 0)
(0.100802169 -0.000187603913 0)
(0.100817615 -0.000166834721 0)
(0.100829535 -0.000147083849 0)
(0.100838244 -0.000128323722 0)
(0.100844057 -0.000110526427 0)
(0.100847284 -9.36645909e-05 0)
(0.100848229 -7.77106505e-05 0)
(0.100847195 -6.2641263e-05 0)
(0.100844488 -4.84533484e-05 0)
(0.100840408 -3.51861807e-05 0)
(0.100835222 -2.29321472e-05 0)
(0.100829148 -1.18661255e-05 0)
(0.10082224 -2.19823985e-06 0)
(0.100814201 6.12039778e-06 0)
(0.100804799 1.33958092e-05 0)
(0.100794233 1.98423598e-05 0)
(0.100782782 2.55496374e-05 0)
(0.100770592 3.05882779e-05 0)
(0.10075776 3.50308051e-05 0)
(0.10074439 3.8941963e-05 0)
(0.100730583 4.23775226e-05 0)
(0.100716436 4.53860846e-05 0)
(0.100702034 4.80100669e-05 0)
(0.100687454 5.02863393e-05 0)
(0.100672765 5.22464229e-05 0)
(0.100658031 5.39166878e-05 0)
(0.100643307 5.5319158e-05 0)
(0.10062864 5.64727278e-05 0)
(0.10061407 5.73943188e-05 0)
(0.100599631 5.80997793e-05 0)
(0.100585351 5.86044794e-05 0)
(0.100571257 5.89235894e-05 0)
(0.100557367 5.90721079e-05 0)
(0.100543701 5.90647529e-05 0)
(0.100530275 5.89158001e-05 0)
(0.100517102 5.8638901e-05 0)
(0.100504195 5.82469006e-05 0)
(0.100491566 5.77516736e-05 0)
(0.100479224 5.71639982e-05 0)
(0.10046718 5.64934826e-05 0)
(0.10045544 5.57485526e-05 0)
(0.100444012 5.49365019e-05 0)
(0.100432901 5.40636018e-05 0)
(0.100422111 5.31352562e-05 0)
(0.100411646 5.21561814e-05 0)
(0.100401509 5.11305878e-05 0)
(0.100391699 5.00623405e-05 0)
(0.10038222 4.89550845e-05 0)
(0.10037307 4.78123235e-05 0)
(0.10036425 4.66374503e-05 0)
(0.10035576 4.54337322e-05 0)
(0.1003476 4.42042571e-05 0)
(0.10033977 4.29518398e-05 0)
(0.100332272 4.16789402e-05 0)
(0.100325105 4.0387319e-05 0)
(0.10031828 3.90786448e-05 0)
(0.10031177 3.77499274e-05 0)
(0.10030569 3.64120341e-05 0)
(0.100299686 3.49960878e-05 0)
(0.100295123 3.37758653e-05 0)
(0.100287703 3.13891867e-05 0)
(0.100001269 -9.37561586e-06 0)
(0.100007829 -8.69535513e-06 0)
(0.100016071 1.57985072e-05 0)
(0.100019427 6.20024886e-05 0)
(0.100011207 0.000123165339 0)
(0.0999876117 0.000190867339 0)
(0.0999478908 0.000257007807 0)
(0.099893242 0.000314698434 0)
(0.0998262361 0.000358651414 0)
(0.0997504555 0.000385473976 0)
(0.0996699871 0.000393887566 0)
(0.0995889164 0.000384561346 0)
(0.0995110119 0.000359446324 0)
(0.0994396171 0.000321057113 0)
(0.099377625 0.00027234958 0)
(0.0993273387 0.000217324699 0)
(0.0992901138 0.00016172717 0)
(0.0992658493 0.000112968204 0)
(0.0992525927 7.8906448e-05 0)
(0.0992466175 6.58675533e-05 0)
(0.0992429696 7.681468e-05 0)
(0.0992362056 0.000110496383 0)
(0.0992213102 0.000161792942 0)
(0.0991946571 0.000222969596 0)
(0.0991545712 0.000285390503 0)
(0.0991013821 0.000341134579 0)
(0.0990371558 0.000384051672 0)
(0.0989652036 0.000410184397 0)
(0.0988894791 0.000417736641 0)
(0.0988140537 0.000406791062 0)
(0.098742767 0.000378960901 0)
(0.098679011 0.000337129029 0)
(0.0986255635 0.00028534541 0)
(0.0985844103 0.000228808395 0)
(0.0985565074 0.000173725214 0)
(0.0985414752 0.000126940035 0)
(0.0985374245 9.51416468e-05 0)
(0.0985410574 8.37045439e-05 0)
(0.0985479497 9.54542293e-05 0)
(0.0985531046 0.000129723485 0)
(0.0985518559 0.000182179203 0)
(0.098540791 0.000245597946 0)
(0.098518351 0.000311431989 0)
(0.0984849959 0.000371738768 0)
(0.0984428991 0.000420898269 0)
(0.0983952368 0.000456597009 0)
(0.098345301 0.000479811632 0)
(0.0982957161 0.000493885545 0)
(0.09824798 0.000503103933 0)
(0.0982024133 0.000511306191 0)
(0.0981584505 0.000520982979 0)
(0.0981150969 0.000533045911 0)
(0.0980713568 0.000547165993 0)
(0.0980265003 0.000562387643 0)
(0.0979801339 0.000577703326 0)
(0.0979321283 0.000592390502 0)
(0.0978824913 0.000606077988 0)
(0.09783126 0.000618632453 0)
(0.0977784489 0.000629994491 0)
(0.0977240491 0.000640059553 0)
(0.0976680547 0.000648636056 0)
(0.0976104918 0.000655462772 0)
(0.0975514363 0.000660248946 0)
(0.0974910175 0.000662708241 0)
(0.0974294135 0.000662576457 0)
(0.0973668474 0.000659617092 0)
(0.0973035864 0.000653618624 0)
(0.0972399405 0.000644392057 0)
(0.0971762598 0.000631771783 0)
(0.0971129335 0.000615618394 0)
(0.0970503873 0.000595821669 0)
(0.0969890815 0.000572302671 0)
(0.0969295074 0.000545014544 0)
(0.0968721851 0.000513942091 0)
(0.09681766 0.000479100398 0)
(0.0967664996 0.000440532501 0)
(0.096719289 0.000398306391 0)
(0.0966766252 0.00035251128 0)
(0.0966391119 0.000303254024 0)
(0.0966073492 0.000250657861 0)
(0.0965819121 0.000194869446 0)
(0.0965633691 0.000136089429 0)
(0.0965523676 7.45883196e-05 0)
(0.0965499381 1.07020717e-05 0)
(0.0965564714 -5.51047535e-05 0)
(0.0965719904 -0.000122368769 0)
(0.0965971801 -0.000190926634 0)
(0.0966325242 -0.000260435602 0)
(0.0966782329 -0.000330445536 0)
(0.0967344583 -0.000400482417 0)
(0.0968012626 -0.000470014843 0)
(0.0968785931 -0.000538454852 0)
(0.0969662832 -0.000605179131 0)
(0.0970640455 -0.000669541895 0)
(0.0971714668 -0.000730887919 0)
(0.0972880098 -0.000788569228 0)
(0.0974130178 -0.000841962485 0)
(0.0975457211 -0.000890486192 0)
(0.0976852469 -0.000933617421 0)
(0.0978306312 -0.000970907248 0)
(0.097980834 -0.0010019941 0)
(0.0981347566 -0.00102661431 0)
(0.0982912616 -0.00104460942 0)
(0.0984491949 -0.00105592975 0)
(0.0986074079 -0.00106063425 0)
(0.0987647802 -0.00105888649 0)
(0.09892024 -0.00105094728 0)
(0.0990727829 -0.00103716447 0)
(0.0992214872 -0.00101796043 0)
(0.0993655262 -0.000993818043 0)
(0.0995041766 -0.00096526586 0)
(0.0996368237 -0.000932863067 0)
(0.099762963 -0.000897184914 0)
(0.0998821996 -0.000858809033 0)
(0.0999942438 -0.000818303126 0)
(0.100098906 -0.000776214223 0)
(0.100196087 -0.000733059719 0)
(0.100285774 -0.00068932037 0)
(0.100368027 -0.000645434132 0)
(0.100442971 -0.000601791277 0)
(0.100510785 -0.000558732267 0)
(0.100571695 -0.000516547495 0)
(0.100625964 -0.000475477448 0)
(0.100673881 -0.000435713854 0)
(0.10071577 -0.000397400131 0)
(0.100751985 -0.00036062647 0)
(0.10078289 -0.000325432969 0)
(0.100808842 -0.000291834541 0)
(0.100830203 -0.000259846819 0)
(0.100847355 -0.000229484086 0)
(0.100860679 -0.000200756861 0)
(0.100870526 -0.000173660823 0)
(0.100877215 -0.000148167798 0)
(0.100881063 -0.000124236109 0)
(0.100882378 -0.000101824771 0)
(0.10088146 -8.0912807e-05 0)
(0.100878585 -6.1482128e-05 0)
(0.100873987 -4.35097315e-05 0)
(0.100867857 -2.69821479e-05 0)
(0.100860306 -1.18771127e-05 0)
(0.100851415 1.91310783e-06 0)
(0.100841493 1.42781366e-05 0)
(0.100830837 2.50972325e-05 0)
(0.100819405 3.45732126e-05 0)
(0.100807147 4.29400253e-05 0)
(0.10079418 5.03102894e-05 0)
(0.100780629 5.67661711e-05 0)
(0.100766586 6.23961489e-05 0)
(0.100752135 6.72835536e-05 0)
(0.100737361 7.15014659e-05 0)
(0.100722345 7.51142701e-05 0)
(0.100707158 7.81793216e-05 0)
(0.100691867 8.07482738e-05 0)
(0.100676531 8.28677053e-05 0)
(0.100661202 8.45792482e-05 0)
(0.100645928 8.59200011e-05 0)
(0.10063075 8.69232073e-05 0)
(0.100615706 8.7618832e-05 0)
(0.100600827 8.80340312e-05 0)
(0.10058614 8.81935993e-05 0)
(0.10057167 8.81203591e-05 0)
(0.100557435 8.78354472e-05 0)
(0.100543454 8.73585093e-05 0)
(0.100529742 8.67078326e-05 0)
(0.100516311 8.59004237e-05 0)
(0.100503172 8.49520457e-05 0)
(0.100490334 8.387723e-05 0)
(0.100477806 8.26892837e-05 0)
(0.100465593 8.14003051e-05 0)
(0.100453702 8.00212158e-05 0)
(0.100442138 7.85618112e-05 0)
(0.100430903 7.7030833e-05 0)
(0.100420002 7.54360587e-05 0)
(0.100409435 7.37843996e-05 0)
(0.100399205 7.20820034e-05 0)
(0.100389311 7.03343502e-05 0)
(0.100379755 6.85463339e-05 0)
(0.100370537 6.67223248e-05 0)
(0.100361655 6.48662079e-05 0)
(0.100353109 6.29813912e-05 0)
(0.100344899 6.10707847e-05 0)
(0.100337025 5.91367289e-05 0)
(0.100329486 5.71809419e-05 0)
(0.100322281 5.52040665e-05 0)
(0.100315418 5.32066863e-05 0)
(0.100308867 5.11825907e-05 0)
(0.100302738 4.914772e-05 0)
(0.100296642 4.70002484e-05 0)
(0.100291996 4.51613457e-05 0)
(0.100284154 4.16546878e-05 0)
(0.100001174 -1.37265734e-05 0)
(0.100006985 -1.79845695e-05 0)
(0.100013979 5.4109488e-06 0)
(0.100015711 5.45849104e-05 0)
(0.100006058 0.000122729 0)
(0.099981811 0.000199773153 0)
(0.0999421979 0.000275659521 0)
(0.0998882339 0.000342082388 0)
(0.0998222709 0.000392947726 0)
(0.0997476496 0.000424434431 0)
(0.0996682479 0.000435071523 0)
(0.0995880047 0.000425541138 0)
(0.0995105962 0.000397952653 0)
(0.0994393041 0.000355033878 0)
(0.0993769732 0.000299997433 0)
(0.09932589 0.000237252273 0)
(0.099287453 0.000173245433 0)
(0.0992617011 0.000116413697 0)
(0.0992469259 7.58101853e-05 0)
(0.0992395553 5.88677988e-05 0)
(0.0992345331 6.92860736e-05 0)
(0.0992263311 0.000105975196 0)
(0.0992101495 0.000163364213 0)
(0.0991827018 0.000232784413 0)
(0.0991425201 0.000304371925 0)
(0.0990899479 0.000368893203 0)
(0.0990268974 0.00041903999 0)
(0.0989564251 0.000450032516 0)
(0.0988822235 0.000459645777 0)
(0.0988081617 0.00044788692 0)
(0.0987379486 0.000416559202 0)
(0.0986749 0.000368913456 0)
(0.0986217524 0.000309490079 0)
(0.0985804744 0.000244098123 0)
(0.0985520416 0.000179720549 0)
(0.0985361932 0.000124105168 0)
(0.0985312521 8.48949763e-05 0)
(0.0985340844 6.83079375e-05 0)
(0.098540369 7.77432051e-05 0)
(0.0985453023 0.000112811655 0)
(0.0985444706 0.000169008299 0)
(0.0985345959 0.000238339183 0)
(0.0985140607 0.000310981618 0)
(0.0984830976 0.000377538569 0)
(0.0984435542 0.000431166845 0)
(0.0983982843 0.000468895991 0)
(0.0983503486 0.000491746805 0)
(0.0983022737 0.000503701478 0)
(0.0982555865 0.000509989662 0)
(0.0982107216 0.000515359962 0)
(0.0981672528 0.000522919699 0)
(0.0981242984 0.000533809365 0)
(0.0980809213 0.000547604249 0)
(0.098036393 0.000563082788 0)
(0.0979902829 0.000578960101 0)
(0.0979424096 0.000594325575 0)
(0.0978927331 0.000608733392 0)
(0.0978412563 0.000622057274 0)
(0.0977879733 0.000634275593 0)
(0.0977328643 0.000645312318 0)
(0.0976759176 0.000654978398 0)
(0.0976171557 0.00066299187 0)
(0.0975566521 0.000669029128 0)
(0.0974945377 0.000672768934 0)
(0.0974310015 0.000673915004 0)
(0.0973662849 0.000672201776 0)
(0.0973006753 0.000667389817 0)
(0.0972345037 0.000659261559 0)
(0.0971681436 0.000647621333 0)
(0.0971020088 0.00063229826 0)
(0.0970365508 0.000613149796 0)
(0.0969722549 0.000590064568 0)
(0.0969096372 0.000562964089 0)
(0.0968492411 0.000531803546 0)
(0.096791635 0.000496571943 0)
(0.0967374094 0.00045729183 0)
(0.0966871743 0.000414018693 0)
(0.0966415565 0.000366840471 0)
(0.0966011965 0.000315878179 0)
(0.096566747 0.000261286072 0)
(0.096538883 0.000203258079 0)
(0.0965182867 0.000142039594 0)
(0.0965054855 7.78763552e-05 0)
(0.0965004981 1.10131835e-05 0)
(0.0965041299 -5.83378011e-05 0)
(0.096517626 -0.000129809093 0)
(0.0965413117 -0.000203006094 0)
(0.0965754286 -0.000277535309 0)
(0.0966203017 -0.000352910524 0)
(0.0966761692 -0.00042857396 0)
(0.0967431425 -0.000503912987 0)
(0.0968212151 -0.000578262216 0)
(0.0969102597 -0.000650914078 0)
(0.097010016 -0.000721131284 0)
(0.0971200838 -0.000788160261 0)
(0.0972399223 -0.000851248402 0)
(0.0973688514 -0.000909664535 0)
(0.0975060579 -0.000962721139 0)
(0.0976506045 -0.00100979679 0)
(0.097801445 -0.00105035708 0)
(0.0979574419 -0.00108397238 0)
(0.0981173891 -0.0011103313 0)
(0.0982800357 -0.00112924919 0)
(0.098444113 -0.00114067175 0)
(0.0986083611 -0.00114467381 0)
(0.0987715547 -0.00114145373 0)
(0.0989325276 -0.00113132384 0)
(0.0990901933 -0.00111469758 0)
(0.0992435628 -0.00109207403 0)
(0.0993917577 -0.00106402057 0)
(0.0995340195 -0.00103115466 0)
(0.0996697144 -0.000994125531 0)
(0.0997983339 -0.000953596594 0)
(0.0999194926 -0.000910229197 0)
(0.100032922 -0.000864668245 0)
(0.100138465 -0.000817529975 0)
(0.100236061 -0.000769392004 0)
(0.10032574 -0.000720785756 0)
(0.100407609 -0.000672191057 0)
(0.100481841 -0.000624032725 0)
(0.100548665 -0.000576679188 0)
(0.100608356 -0.000530442394 0)
(0.100661227 -0.000485578677 0)
(0.10070762 -0.000442290517 0)
(0.100747894 -0.000400730382 0)
(0.100782424 -0.000361010375 0)
(0.100811595 -0.000323210244 0)
(0.100835801 -0.000287376697 0)
(0.100855436 -0.000253523607 0)
(0.100870876 -0.000221642844 0)
(0.100882474 -0.000191722215 0)
(0.10089059 -0.00016374039 0)
(0.100895583 -0.000137655865 0)
(0.10089778 -0.000113412069 0)
(0.10089747 -9.09424369e-05 0)
(0.100894928 -7.01601811e-05 0)
(0.100890461 -5.09860044e-05 0)
(0.100884369 -3.33383335e-05 0)
(0.100876951 -1.71365206e-05 0)
(0.100868582 -2.43717094e-06 0)
(0.100859331 1.08237585e-05 0)
(0.100848987 2.28483554e-05 0)
(0.10083761 3.36403174e-05 0)
(0.100825376 4.31946626e-05 0)
(0.100812378 5.1622854e-05 0)
(0.100798722 5.90371911e-05 0)
(0.100784523 6.55231044e-05 0)
(0.100769881 7.11616775e-05 0)
(0.100754881 7.60323186e-05 0)
(0.100739604 8.02085676e-05 0)
(0.100724126 8.3757113e-05 0)
(0.10070852 8.67379194e-05 0)
(0.100692849 8.92046634e-05 0)
(0.100677172 9.12053025e-05 0)
(0.100661541 9.2782536e-05 0)
(0.100646 9.39744372e-05 0)
(0.10063059 9.48152936e-05 0)
(0.100615342 9.53363542e-05 0)
(0.100600285 9.55663739e-05 0)
(0.100585443 9.55320143e-05 0)
(0.100570836 9.52581151e-05 0)
(0.100556481 9.47678366e-05 0)
(0.100542394 9.40827196e-05 0)
(0.100528586 9.32227151e-05 0)
(0.10051507 9.22062032e-05 0)
(0.100501855 9.10500086e-05 0)
(0.10048895 8.97694207e-05 0)
(0.100476361 8.83782286e-05 0)
(0.100464097 8.68887756e-05 0)
(0.100452161 8.53120386e-05 0)
(0.100440558 8.36577271e-05 0)
(0.100429291 8.19344034e-05 0)
(0.100418362 8.0149616e-05 0)
(0.100407773 7.83100356e-05 0)
(0.100397525 7.64215868e-05 0)
(0.100387617 7.44895623e-05 0)
(0.10037805 7.25187109e-05 0)
(0.100368822 7.05132954e-05 0)
(0.100359932 6.84771187e-05 0)
(0.10035138 6.64135168e-05 0)
(0.100343163 6.43253255e-05 0)
(0.100335282 6.22148038e-05 0)
(0.100327735 6.00836047e-05 0)
(0.100320519 5.7932341e-05 0)
(0.100313643 5.57619228e-05 0)
(0.100307075 5.35662766e-05 0)
(0.100300926 5.13655896e-05 0)
(0.100294818 4.90521268e-05 0)
(0.100290161 4.7093281e-05 0)
(0.10028248 4.33870902e-05 0)
(0.100001418 -1.84146165e-05 0)
(0.100008524 -2.52683412e-05 0)
(0.100017067 3.62117152e-06 0)
(0.100020715 6.65218279e-05 0)
(0.100013102 0.000154344956 0)
(0.0999900012 0.000254014306 0)
(0.0999503852 0.000352421216 0)
(0.0998952534 0.000438742087 0)
(0.099827039 0.000505086324 0)
(0.0997492879 0.000546527341 0)
(0.0996661918 0.000561137392 0)
(0.0995820764 0.00054972244 0)
(0.0995010361 0.000514917794 0)
(0.0994267581 0.000460168517 0)
(0.099362432 0.000389549986 0)
(0.0993105725 0.000308667938 0)
(0.0992726416 0.000225737394 0)
(0.0992485387 0.000151568725 0)
(0.0992362344 9.78455565e-05 0)
(0.0992318625 7.42415517e-05 0)
(0.0992302857 8.56866704e-05 0)
(0.0992258391 0.000130933219 0)
(0.0992131966 0.000202895406 0)
(0.0991883427 0.000290457912 0)
(0.0991492604 0.000380971482 0)
(0.0990960874 0.000462620892 0)
(0.0990308501 0.000526091594 0)
(0.0989569504 0.000565333535 0)
(0.0988785703 0.000577555957 0)
(0.0988001362 0.000562762354 0)
(0.0987259216 0.000523161547 0)
(0.0986597706 0.000462725032 0)
(0.0986048746 0.000387015907 0)
(0.0985635306 0.000303209404 0)
(0.0985368492 0.000220042704 0)
(0.098524443 0.000147353893 0)
(0.0985242391 9.50187797e-05 0)
(0.0985326337 7.13098983e-05 0)
(0.0985449767 8.09086937e-05 0)
(0.098556106 0.000123407024 0)
(0.0985610238 0.000192901831 0)
(0.0985558374 0.000279021611 0)
(0.0985385502 0.000369180653 0)
(0.0985093484 0.000451448833 0)
(0.0984703183 0.00051719727 0)
(0.0984247125 0.00056271772 0)
(0.0983760182 0.000589350322 0)
(0.0983271167 0.000602179605 0)
(0.0982797603 0.000607872799 0)
(0.0982344667 0.000612496286 0)
(0.0981907768 0.000620041858 0)
(0.0981477055 0.000632003059 0)
(0.0981041888 0.000647873347 0)
(0.0980593826 0.000666115614 0)
(0.0980127684 0.000685095401 0)
(0.0979641061 0.000703643988 0)
(0.0979133174 0.000721182074 0)
(0.0978603789 0.000737541594 0)
(0.0978052643 0.000752694959 0)
(0.0977479367 0.000766551726 0)
(0.0976883719 0.000778881215 0)
(0.097626586 0.000789335342 0)
(0.0975626537 0.000797512292 0)
(0.0974967146 0.000803012442 0)
(0.0974289707 0.000805466248 0)
(0.0973596818 0.000804537521 0)
(0.0972891597 0.000799919089 0)
(0.0972177658 0.00079132951 0)
(0.097145908 0.000778513778 0)
(0.0970740389 0.000761247165 0)
(0.0970026521 0.000739339572 0)
(0.0969322791 0.000712638506 0)
(0.096863485 0.000681030184 0)
(0.0967968648 0.00064443924 0)
(0.0967330387 0.000602827681 0)
(0.0966726482 0.000556193558 0)
(0.0966163511 0.00050456978 0)
(0.0965648179 0.000448023371 0)
(0.0965187265 0.000386654892 0)
(0.0964787581 0.000320598354 0)
(0.096445589 0.00025001806 0)
(0.0964198501 0.000175098286 0)
(0.0964022109 9.60586183e-05 0)
(0.096393708 1.32719946e-05 0)
(0.0963949025 -7.25546472e-05 0)
(0.0964060267 -0.000161083381 0)
(0.0964277715 -0.000251907131 0)
(0.0964606985 -0.000344459932 0)
(0.0965051883 -0.000438101776 0)
(0.0965615311 -0.000532129603 0)
(0.0966299129 -0.000625766164 0)
(0.0967103926 -0.000718163458 0)
(0.0968028874 -0.000808418013 0)
(0.0969071605 -0.000895588821 0)
(0.0970228114 -0.000978717759 0)
(0.0971492713 -0.0010568533 0)
(0.0972858033 -0.00112907623 0)
(0.0974315085 -0.00119452609 0)
(0.0975853381 -0.00125242731 0)
(0.0977461103 -0.00130211379 0)
(0.0979125335 -0.00134305075 0)
(0.098083233 -0.00137485224 0)
(0.0982567811 -0.0013972933 0)
(0.09843173 -0.00141031588 0)
(0.0986066446 -0.00141402815 0)
(0.0987801348 -0.00140869747 0)
(0.0989508843 -0.00139473754 0)
(0.0991176766 -0.00137269088 0)
(0.0992794152 -0.00134320777 0)
(0.0994351389 -0.00130702297 0)
(0.0995840316 -0.0012649315 0)
(0.0997254265 -0.0012177647 0)
(0.0998588056 -0.0011663675 0)
(0.0999837947 -0.00111157772 0)
(0.100100155 -0.001054208 0)
(0.100207774 -0.000995030722 0)
(0.100306649 -0.000934765885 0)
(0.100396877 -0.000874072153 0)
(0.100478639 -0.000813540573 0)
(0.100552186 -0.000753690731 0)
(0.100617827 -0.00069496961 0)
(0.100675915 -0.000637752985 0)
(0.100726834 -0.000582348488 0)
(0.100770996 -0.000528999671 0)
(0.100808826 -0.000477890601 0)
(0.100840759 -0.000429150926 0)
(0.100867235 -0.000382862216 0)
(0.100888688 -0.000339066691 0)
(0.10090554 -0.00029777583 0)
(0.100918204 -0.000258976179 0)
(0.100927077 -0.000222622439 0)
(0.100932541 -0.000188646146 0)
(0.100934959 -0.000156971019 0)
(0.100934673 -0.000127515038 0)
(0.10093203 -0.000100188144 0)
(0.100927342 -7.48866061e-05 0)
(0.100920879 -5.15212481e-05 0)
(0.100912878 -3.0054378e-05 0)
(0.100903371 -1.04816548e-05 0)
(0.100892446 7.31523653e-06 0)
(0.100880483 2.3244182e-05 0)
(0.100867725 3.73981189e-05 0)
(0.10085423 4.99653846e-05 0)
(0.100840079 6.10705284e-05 0)
(0.100825361 7.0836883e-05 0)
(0.100810161 7.93907544e-05 0)
(0.100794568 8.68417066e-05 0)
(0.100778668 9.32874914e-05 0)
(0.100762535 9.88196554e-05 0)
(0.100746242 0.000103523209 0)
(0.100729851 0.000107475903 0)
(0.10071342 0.000110748501 0)
(0.100697002 0.00011340555 0)
(0.100680643 0.000115505993 0)
(0.100664384 0.000117103364 0)
(0.100648264 0.000118245933 0)
(0.100632315 0.00011897712 0)
(0.100616568 0.000119336033 0)
(0.100601051 0.000119357991 0)
(0.100585785 0.000119075017 0)
(0.10057079 0.000118516315 0)
(0.100556083 0.000117708651 0)
(0.100541677 0.000116676648 0)
(0.100527584 0.000115442988 0)
(0.100513812 0.000114028561 0)
(0.10050037 0.000112452568 0)
(0.100487262 0.000110732609 0)
(0.100474493 0.000108884747 0)
(0.100462068 0.000106923583 0)
(0.100449987 0.000104862327 0)
(0.100438254 0.000102712872 0)
(0.10042687 0.000100485879 0)
(0.100415834 9.81908616e-05 0)
(0.100405148 9.58362679e-05 0)
(0.100394812 9.34295648e-05 0)
(0.100384824 9.09773178e-05 0)
(0.100375183 8.84852646e-05 0)
(0.100365889 8.59583817e-05 0)
(0.10035694 8.3400939e-05 0)
(0.100348334 8.08165355e-05 0)
(0.100340071 7.82081181e-05 0)
(0.100332147 7.55779583e-05 0)
(0.100324561 7.29276993e-05 0)
(0.10031731 7.02579152e-05 0)
(0.1003104 6.7569864e-05 0)
(0.100303796 6.48566409e-05 0)
(0.10029761 6.21439722e-05 0)
(0.100291442 5.9300909e-05 0)
(0.100286734 5.69004745e-05 0)
(0.100278778 5.23640694e-05 0)
(0.100001262 -2.36730416e-05 0)
(0.100007876 -3.62160992e-05 0)
(0.100016675 -6.54740582e-06 0)
(0.100020638 6.39812395e-05 0)
(0.100012723 0.000164957109 0)
(0.0999893702 0.000280681631 0)
(0.0999495405 0.00039538577 0)
(0.0998941572 0.00049626244 0)
(0.0998256084 0.000574154132 0)
(0.0997473867 0.000623375018 0)
(0.0996636384 0.000641621849 0)
(0.0995786641 0.000629663039 0)
(0.099496553 0.000590349567 0)
(0.099421006 0.000527490764 0)
(0.0993552504 0.000445671922 0)
(0.0993018753 0.000351299115 0)
(0.0992624768 0.000253865424 0)
(0.0992371651 0.000165952728 0)
(0.0992241335 0.000101270735 0)
(0.0992195485 7.13238165e-05 0)
(0.0992179682 8.21559928e-05 0)
(0.0992133819 0.000132588501 0)
(0.0992004583 0.000214559538 0)
(0.0991753986 0.000315215505 0)
(0.0991363333 0.000419825922 0)
(0.0990833963 0.000514556011 0)
(0.0990185071 0.000588435888 0)
(0.0989449295 0.000634290227 0)
(0.0988667359 0.000648759313 0)
(0.0987883 0.000631754402 0)
(0.0987138951 0.000585749199 0)
(0.0986473966 0.00051524392 0)
(0.0985920421 0.000426565105 0)
(0.0985501999 0.000327912668 0)
(0.0985231073 0.000229334608 0)
(0.0985106338 0.000142238073 0)
(0.0985111224 7.80823104e-05 0)
(0.0985211663 4.64102429e-05 0)
(0.0985357906 5.28610255e-05 0)
(0.0985493499 9.731644e-05 0)
(0.0985566334 0.000173252046 0)
(0.098553783 0.000268975219 0)
(0.0985388567 0.000369936164 0)
(0.0985120037 0.000462050353 0)
(0.0984752054 0.000534969545 0)
(0.0984316232 0.000584126054 0)
(0.0983847177 0.000610983037 0)
(0.0983374011 0.00062154703 0)
(0.0982914817 0.000623803187 0)
(0.0982475242 0.000625078208 0)
(0.0982050868 0.000630231385 0)
(0.0981631679 0.000641107735 0)
(0.098120662 0.000657116571 0)
(0.0980766729 0.000676398425 0)
(0.0980306311 0.000696962913 0)
(0.0979822518 0.000717384067 0)
(0.0979314201 0.00073696022 0)
(0.097878083 0.00075550079 0)
(0.0978221891 0.000772994612 0)
(0.0977636818 0.000789357548 0)
(0.0977025223 0.000804333845 0)
(0.0976387184 0.000817521595 0)
(0.0975723439 0.000828449859 0)
(0.097503545 0.000836647146 0)
(0.0974325384 0.000841676346 0)
(0.0973596054 0.000843140793 0)
(0.0972850865 0.000840678167 0)
(0.0972093778 0.000833955026 0)
(0.097132927 0.00082266671 0)
(0.0970562291 0.000806541356 0)
(0.0969798216 0.00078534481 0)
(0.0969042789 0.000758884213 0)
(0.0968302067 0.000727009717 0)
(0.0967582371 0.000689614788 0)
(0.0966890253 0.000646635717 0)
(0.0966232459 0.000598050749 0)
(0.096561591 0.00054387913 0)
(0.0965047674 0.000484180364 0)
(0.0964534946 0.00041905399 0)
(0.0964085011 0.000348641248 0)
(0.0963705222 0.000273128086 0)
(0.0963403017 0.000192752022 0)
(0.096318567 0.000107833936 0)
(0.0963058637 1.87202534e-05 0)
(0.0963029289 -7.44284591e-05 0)
(0.0963106572 -0.000171075255 0)
(0.0963296563 -0.000270662366 0)
(0.0963604603 -0.000372600125 0)
(0.0964035675 -0.000476189621 0)
(0.0964593796 -0.000580626388 0)
(0.0965281739 -0.000685011696 0)
(0.096610088 -0.000788360285 0)
(0.0967051028 -0.000889612498 0)
(0.0968130246 -0.000987652309 0)
(0.0969334716 -0.00108133087 0)
(0.0970658639 -0.00116949539 0)
(0.0972094205 -0.00125102238 0)
(0.0973631638 -0.00132485342 0)
(0.097525931 -0.00139003099 0)
(0.0976963947 -0.00144573204 0)
(0.0978730901 -0.00149129713 0)
(0.0980544491 -0.00152625311 0)
(0.0982388392 -0.00155032824 0)
(0.0984246046 -0.00156345888 0)
(0.0986101077 -0.00156578771 0)
(0.098793769 -0.00155765376 0)
(0.098974103 -0.00153957516 0)
(0.0991497486 -0.00151222597 0)
(0.0993194937 -0.00147640856 0)
(0.0994822917 -0.00143302344 0)
(0.0996372717 -0.00138303815 0)
(0.0997837417 -0.00132745685 0)
(0.0999211858 -0.00126729198 0)
(0.100049256 -0.00120353884 0)
(0.100167759 -0.00113715402 0)
(0.100276646 -0.00106903776 0)
(0.100375988 -0.00100002048 0)
(0.100465964 -0.000930853406 0)
(0.100546844 -0.000862202744 0)
(0.100618968 -0.000794647186 0)
(0.10068273 -0.000728678212 0)
(0.100738569 -0.000664702635 0)
(0.10078695 -0.000603046806 0)
(0.10082836 -0.000543962179 0)
(0.100863289 -0.000487632163 0)
(0.100892231 -0.000434180286 0)
(0.100915672 -0.000383678612 0)
(0.100934087 -0.000336155047 0)
(0.100947936 -0.000291599857 0)
(0.100957659 -0.000249972479 0)
(0.100963673 -0.000211208247 0)
(0.100966375 -0.000175225981 0)
(0.100966136 -0.000141933231 0)
(0.100963304 -0.00011122884 0)
(0.100958188 -8.30057038e-05 0)
(0.100951066 -5.71638167e-05 0)
(0.100942166 -3.35923741e-05 0)
(0.10093169 -1.21554308e-05 0)
(0.100920031 7.27531319e-06 0)
(0.100907456 2.48565017e-05 0)
(0.100894001 4.07145307e-05 0)
(0.100879781 5.49033919e-05 0)
(0.100864889 6.75173572e-05 0)
(0.100849426 7.86614642e-05 0)
(0.100833489 8.8442209e-05 0)
(0.100817165 9.69700729e-05 0)
(0.100800537 0.000104350955 0)
(0.100783684 0.000110683414 0)
(0.100766677 0.000116060275 0)
(0.10074958 0.000120568611 0)
(0.100732454 0.000124289028 0)
(0.100715355 0.000127295463 0)
(0.100698334 0.000129655489 0)
(0.100681436 0.000131430884 0)
(0.100664701 0.000132678221 0)
(0.100648162 0.000133449317 0)
(0.100631849 0.000133791574 0)
(0.100615783 0.000133748264 0)
(0.100599987 0.000133358808 0)
(0.100584475 0.000132659048 0)
(0.100569263 0.000131681535 0)
(0.100554363 0.000130455799 0)