/*--------------------------------*- C++ -*----------------------------------*\
| =========                 |                                                 |
| \\      /  F ield         | OpenFOAM: The Open Source CFD Toolbox           |
|  \\    /   O peration     | Version:  v2012                                 |
|   \\  /    A nd           | Website:  www.openfoam.com                      |
|    \\/     M anipulation  |                                                 |
\*---------------------------------------------------------------------------*/
FoamFile
{
    version     2.0;
    format      ascii;
    class       volScalarField;
    location    "2.59";
    object      p;
}
// * * * * * * * * * * * * * * * * * * * * * * * * * * * * * * * * * * * * * //

dimensions      [0 2 -2 0 0 0 0];


internalField   nonuniform List<scalar> 
28416
(
-0.00776217758
-0.00776306999
-0.00776457118
-0.00776711934
-0.00777082178
-0.00777574555
-0.00778188521
-0.00778920505
-0.00779768468
-0.00780731669
-0.00781809
-0.00782997917
-0.00784294635
-0.00785694526
-0.00787192152
-0.00788781155
-0.00790454247
-0.00792203394
-0.0079402013
-0.00795895794
-0.00797821994
-0.00799791631
-0.00801799558
-0.00803841191
-0.00805910171
-0.00807998092
-0.00810095646
-0.00812192811
-0.00814278267
-0.00816339356
-0.00818362521
-0.00820333564
-0.00822237778
-0.00824060238
-0.00825786233
-0.00827401272
-0.00828891293
-0.00830243304
-0.00831443638
-0.00832477009
-0.00833327489
-0.00833979252
-0.00834416741
-0.00834625069
-0.0083459083
-0.00834302211
-0.008337489
-0.00832921979
-0.00831813848
-0.00830418179
-0.00828729895
-0.00826745183
-0.00824461534
-0.00821877802
-0.00818994235
-0.00815812481
-0.00812335555
-0.00808567767
-0.00804514643
-0.00800182821
-0.00795579948
-0.00790714566
-0.00785595996
-0.00780234216
-0.00774639744
-0.00768823529
-0.00762796847
-0.00756571197
-0.007501582
-0.00743569511
-0.0073681674
-0.00729911395
-0.00722864828
-0.00715688197
-0.00708392437
-0.0070098824
-0.00693486053
-0.00685896079
-0.00678228285
-0.00670492441
-0.00662698359
-0.00654856617
-0.00646976971
-0.00639067305
-0.00631138148
-0.00623191061
-0.00615239511
-0.00607288897
-0.0059934689
-0.00591422209
-0.00583522468
-0.0057565487
-0.00567826541
-0.00560044297
-0.00552314547
-0.00544643292
-0.00537036069
-0.00529497879
-0.00522033132
-0.00514645603
-0.00507338378
-0.0050011383
-0.00492973599
-0.00485918592
-0.00478948993
-0.00472064292
-0.00465263334
-0.0045854437
-0.00451905126
-0.00445342877
-0.00438854527
-0.00432436688
-0.00426085764
-0.00419798024
-0.00413569674
-0.0040739693
-0.00401276069
-0.00395203481
-0.00389175725
-0.00383189592
-0.00377242163
-0.00371330825
-0.00365453249
-0.00359607362
-0.00353791309
-0.00348003411
-0.00342242044
-0.00336505335
-0.00330791043
-0.00325097086
-0.0031942178
-0.00313763729
-0.00308121864
-0.00302495464
-0.00296884034
-0.00291287185
-0.00285704643
-0.00280136276
-0.00274581995
-0.00269041465
-0.0026351371
-0.00257995582
-0.0025248542
-0.0024698273
-0.00241488709
-0.00236005403
-0.00230533069
-0.00225071273
-0.00219619841
-0.00214178748
-0.00208747936
-0.0020332729
-0.00197916656
-0.00192515857
-0.00187124698
-0.00181742969
-0.00176370439
-0.00171006869
-0.00165652011
-0.00160305617
-0.00154967437
-0.00149637219
-0.00144314713
-0.0013899967
-0.0013369184
-0.00128390972
-0.00123096816
-0.00117809118
-0.00112527623
-0.00107252074
-0.00101982213
-0.000967177788
-0.000914585127
-0.000862041525
-0.000809544365
-0.00075709105
-0.000704678982
-0.000652305577
-0.000599968286
-0.000547664586
-0.000495391981
-0.000443148024
-0.000390930323
-0.000338736613
-0.000286564512
-0.000234412622
-0.000182277065
-0.000130164573
-7.80513475e-05
-2.60488582e-05
-0.00775941902
-0.00776024029
-0.00776222166
-0.00776528078
-0.00776940926
-0.00777465521
-0.00778106159
-0.00778861869
-0.0077972999
-0.00780709072
-0.00781797891
-0.00782994098
-0.00784294269
-0.0078569434
-0.00787189677
-0.00788775002
-0.00790444476
-0.00792191849
-0.00794010557
-0.00795893828
-0.00797834563
-0.00799825399
-0.00801858644
-0.00803926468
-0.00806020841
-0.00808132904
-0.0081025299
-0.00812370845
-0.00814475389
-0.00816554493
-0.00818595128
-0.00820583599
-0.00822505712
-0.00824346952
-0.00826092577
-0.00827727753
-0.00829237909
-0.00830608474
-0.00831824972
-0.00832872681
-0.00833736175
-0.00834399632
-0.00834847722
-0.00835066161
-0.0083504172
-0.00834762395
-0.00834217481
-0.00833397611
-0.00832294776
-0.00830902336
-0.00829215034
-0.00827229012
-0.00824941837
-0.00822352508
-0.00819461458
-0.00816270532
-0.00812782936
-0.00809003177
-0.00804936974
-0.00800591158
-0.00795973567
-0.00791092924
-0.00785958718
-0.00780581093
-0.00774970727
-0.00769138661
-0.00763096229
-0.00756854959
-0.00750426469
-0.00743822385
-0.00737054266
-0.00730133553
-0.00723071512
-0.007158792
-0.00708567437
-0.00701146788
-0.00693627553
-0.00686019779
-0.00678333282
-0.006705777
-0.00662762578
-0.00654897302
-0.00646991464
-0.00639054702
-0.00631091583
-0.00623112638
-0.00615125066
-0.00607138487
-0.00599160234
-0.00591198151
-0.00583260312
-0.00575354468
-0.00567488168
-0.00559668731
-0.00551903145
-0.00544197994
-0.00536559394
-0.00528992903
-0.00521503448
-0.00514095255
-0.00506771784
-0.00499535685
-0.00492388771
-0.00485332009
-0.0047836553
-0.00471488665
-0.00464699995
-0.00457997424
-0.00451378257
-0.00444839296
-0.00438376936
-0.00431987264
-0.00425666159
-0.00419409383
-0.00413212666
-0.00407071785
-0.00400982627
-0.00394941248
-0.00388943918
-0.0038298716
-0.0037706778
-0.00371182885
-0.00365329884
-0.0035950649
-0.00353710677
-0.00347940576
-0.00342194362
-0.00336470309
-0.00330766816
-0.00325082333
-0.00319415616
-0.00313765578
-0.00308131101
-0.0030251131
-0.00296905572
-0.00291313407
-0.00285734367
-0.0028016791
-0.00274613436
-0.00269070294
-0.00263539212
-0.00258018784
-0.00252509033
-0.00247009635
-0.00241519248
-0.00236038426
-0.00230567839
-0.00225107479
-0.00219657204
-0.0021421695
-0.00208786662
-0.00203366246
-0.00197955574
-0.00192554498
-0.00187162855
-0.00181780468
-0.00176407149
-0.00171042693
-0.00165686887
-0.00160339507
-0.00155000323
-0.00149669098
-0.00144345592
-0.00139029558
-0.00133720749
-0.00128418915
-0.00123123805
-0.00117835163
-0.00112552736
-0.00107276265
-0.00102005493
-0.000967401601
-0.000914800072
-0.000862247732
-0.00080974197
-0.00075728019
-0.000704859786
-0.000652478161
-0.000600132742
-0.000547820972
-0.000495540303
-0.000443288222
-0.000391062239
-0.000338859953
-0.000286678752
-0.00023451689
-0.000182369665
-0.000130242774
-7.81078854e-05
-2.6076874e-05
-0.00775552811
-0.00775633055
-0.00775815203
-0.0077613103
-0.00776549224
-0.00777076732
-0.00777719416
-0.00778477615
-0.00779349759
-0.0078033482
-0.00781431719
-0.00782638191
-0.00783950835
-0.00785365572
-0.00786877757
-0.00788482069
-0.00790172476
-0.00791942357
-0.0079378469
-0.00795692294
-0.00797658137
-0.00799674835
-0.00801735164
-0.00803832325
-0.00805958779
-0.00808105743
-0.00810263436
-0.00812421313
-0.00814568015
-0.00816691259
-0.00818777921
-0.00820814196
-0.00822785711
-0.0082467764
-0.0082647488
-0.00828162154
-0.00829723977
-0.00831144692
-0.0083240863
-0.00833500233
-0.00834404258
-0.00835105573
-0.00835589171
-0.00835840719
-0.00835846887
-0.00835595472
-0.00835075444
-0.0083427702
-0.00833191756
-0.00831812635
-0.00830134135
-0.00828152264
-0.00825864575
-0.00823270163
-0.00820369634
-0.00817165073
-0.00813659982
-0.00809859205
-0.00805768835
-0.00801396105
-0.00796749272
-0.00791837479
-0.00786670627
-0.00781259226
-0.00775614265
-0.00769747143
-0.00763669507
-0.00757393144
-0.00750929887
-0.00744291528
-0.00737489747
-0.00730536054
-0.00723441744
-0.00716217864
-0.00708875196
-0.00701424252
-0.00693875271
-0.00686238239
-0.00678522908
-0.00670738849
-0.00662895479
-0.00655002074
-0.00647066943
-0.00639097466
-0.00631105843
-0.00623097319
-0.00615081268
-0.00607064792
-0.00599056438
-0.00591064662
-0.00583097566
-0.00575163089
-0.00567269045
-0.0055942304
-0.00551632366
-0.00543903935
-0.00536244191
-0.00528659007
-0.00521153599
-0.00513732437
-0.00506399169
-0.00499156567
-0.00492006493
-0.00484949881
-0.00477986756
-0.0047111627
-0.00464336761
-0.00457645836
-0.00451040467
-0.00444517095
-0.00438071743
-0.00431700129
-0.00425397778
-0.0041916012
-0.00412982584
-0.00406860682
-0.00400790075
-0.00394766633
-0.00388786475
-0.00382846012
-0.00376941964
-0.00371071373
-0.00365231586
-0.00359420225
-0.00353635149
-0.00347874404
-0.0034213617
-0.0033641877
-0.00330720691
-0.0032504054
-0.00319377028
-0.00313729081
-0.00308096005
-0.00302477166
-0.00296871868
-0.00291279408
-0.00285699702
-0.00280132696
-0.00274578146
-0.00269035544
-0.00263506434
-0.0025798754
-0.00252477357
-0.00246977249
-0.00241487167
-0.00236006972
-0.00230536913
-0.00225077069
-0.0021962736
-0.00214187708
-0.00208758051
-0.00203338302
-0.00197928344
-0.00192528026
-0.00187137178
-0.0018175561
-0.00176383118
-0.00171019484
-0.00165664485
-0.00160317891
-0.00154979471
-0.00149648989
-0.00144326207
-0.00139010885
-0.0013370278
-0.00128401647
-0.00123107238
-0.001178193
-0.0011253758
-0.0010726182
-0.00101991763
-0.000967271474
-0.000914677119
-0.00086213194
-0.000809633303
-0.000757178591
-0.000704765179
-0.000652390447
-0.0006000518
-0.000547746655
-0.000495472433
-0.00044322658
-0.000391006548
-0.000338809861
-0.000286633812
-0.000234476559
-0.000182333442
-0.000130210525
-7.80817694e-05
-2.60623848e-05
-0.0077503912
-0.00775131944
-0.00775357417
-0.00775683885
-0.00776121891
-0.0077667201
-0.00777336934
-0.00778116793
-0.00779009398
-0.00780013335
-0.00781127535
-0.00782349998
-0.00783677701
-0.00785107
-0.00786633744
-0.00788253203
-0.00789960104
-0.00791748766
-0.00793613226
-0.00795547053
-0.00797543026
-0.00799594219
-0.00801693488
-0.00803832587
-0.00806002853
-0.00808195272
-0.0081040021
-0.00812607267
-0.00814805154
-0.0081698161
-0.0081912347
-0.00821216818
-0.00823247107
-0.00825199231
-0.00827057592
-0.00828806278
-0.00830429433
-0.00831911493
-0.00833237206
-0.00834390827
-0.00835355529
-0.0083611456
-0.00836652317
-0.008369542
-0.00837006536
-0.0083679668
-0.00836313139
-0.00835545728
-0.00834485702
-0.00833125839
-0.00831460495
-0.00829485639
-0.00827198855
-0.00824599344
-0.00821687901
-0.00818466878
-0.00814940115
-0.00811112857
-0.00806991642
-0.00802584184
-0.00797899233
-0.00792946435
-0.00787736187
-0.00782279492
-0.00776587819
-0.00770672971
-0.00764546951
-0.0075822185
-0.00751709749
-0.00745022639
-0.00738172349
-0.0073117049
-0.00724028411
-0.00716757171
-0.00709367522
-0.00701869901
-0.0069427444
-0.00686590979
-0.00678829093
-0.00670998117
-0.00663107137
-0.00655165014
-0.00647180648
-0.00639163179
-0.00631119357
-0.00623059091
-0.00614989914
-0.00606920742
-0.00598859672
-0.00590815011
-0.00582795239
-0.00574808775
-0.00566863931
-0.00558968867
-0.00551131484
-0.00543359332
-0.00535659489
-0.00528038444
-0.00520501978
-0.0051305505
-0.00505701697
-0.00498444963
-0.00491286844
-0.00484228275
-0.00477269136
-0.00470408302
-0.00463643716
-0.00456972489
-0.00450391017
-0.00443895114
-0.00437480143
-0.00431141158
-0.00424873034
-0.00418670581
-0.00412528658
-0.00406442263
-0.00400406605
-0.00394417166
-0.00388469748
-0.00382560499
-0.00376685925
-0.00370842898
-0.00365028633
-0.00359240668
-0.00353476829
-0.00347735192
-0.00342014049
-0.00336311873
-0.00330627305
-0.00324959149
-0.00319306401
-0.00313668243
-0.00308044017
-0.00302433189
-0.00296835417
-0.00291250524
-0.0028567787
-0.00280116828
-0.00274566961
-0.00269029272
-0.00263498701
-0.00257979871
-0.00252471347
-0.00246972709
-0.00241484042
-0.00236005305
-0.00230536541
-0.00225077792
-0.00219629018
-0.00214190145
-0.00208761093
-0.00203341768
-0.00197932054
-0.00192531822
-0.00187140931
-0.00181759226
-0.00176386539
-0.00171022689
-0.00165667475
-0.00160320687
-0.00154982104
-0.00149651493
-0.00144328617
-0.0013901323
-0.00133705087
-0.00128403936
-0.00123109525
-0.001178216
-0.00112539903
-0.00107264178
-0.00101994166
-0.000967296047
-0.000914702358
-0.000862157965
-0.00080966024
-0.000757206565
-0.000704794303
-0.000652420821
-0.000600083491
-0.000547779693
-0.000495506798
-0.000443262187
-0.000391043233
-0.000338847363
-0.000286671739
-0.000234514358
-0.000182370167
-0.000130244755
-7.8109279e-05
-2.60781423e-05
-0.00774371023
-0.00774462025
-0.00774678676
-0.00775011851
-0.00775457707
-0.00776015739
-0.00776690214
-0.00777480773
-0.00778385614
-0.00779403592
-0.0078053373
-0.0078177408
-0.0078312167
-0.00784572958
-0.00786124005
-0.00787770404
-0.00789507248
-0.00791329169
-0.00793230298
-0.00795204502
-0.00797245706
-0.00799346413
-0.00801498261
-0.00803693337
-0.00805923274
-0.00808178852
-0.00810450117
-0.00812726438
-0.00814996413
-0.00817247767
-0.00819467311
-0.00821641003
-0.00823754064
-0.00825791162
-0.00827736618
-0.00829574513
-0.00831288412
-0.00832860717
-0.00834272734
-0.00835506826
-0.00836547298
-0.00837378871
-0.00837985895
-0.00838352916
-0.00838465407
-0.00838309952
-0.008378744
-0.00837147997
-0.00836121475
-0.00834787163
-0.00833139092
-0.0083117306
-0.00828886654
-0.00826279233
-0.00823351893
-0.00820107398
-0.00816550097
-0.00812685821
-0.00808521765
-0.00804066344
-0.0079932904
-0.00794320246
-0.00789051093
-0.00783533294
-0.00777778983
-0.00771800571
-0.00765610611
-0.00759221671
-0.00752646237
-0.00745896615
-0.00738984863
-0.00731922746
-0.00724721687
-0.00717392757
-0.00709946669
-0.00702393776
-0.00694744095
-0.0068700732
-0.00679192855
-0.0067130984
-0.00663367196
-0.00655373661
-0.0064733766
-0.00639267493
-0.00631172105
-0.00623058923
-0.00614936846
-0.00606814048
-0.00598699103
-0.00590600712
-0.00582527618
-0.00574488617
-0.00566492508
-0.00558548015
-0.00550663669
-0.00542847686
-0.00535107824
-0.00527451231
-0.00519884294
-0.00512412493
-0.00505040273
-0.00497770944
-0.00490606617
-0.00483548178
-0.00476595296
-0.00469746489
-0.00462999209
-0.00456349969
-0.00449794492
-0.00443327866
-0.00436944715
-0.00430639361
-0.00424405976
-0.00418238726
-0.00412131886
-0.00406079947
-0.0040007769
-0.00394120248
-0.00388203147
-0.00382322324
-0.00376474138
-0.00370655363
-0.00364863163
-0.00359095067
-0.00353348929
-0.00347622888
-0.0034191533
-0.0033622486
-0.00330550287
-0.00324890608
-0.00319244982
-0.00313612719
-0.0030799327
-0.00302386187
-0.00296791059
-0.00291207423
-0.00285634685
-0.0028007217
-0.00274521198
-0.0026898087
-0.00263451747
-0.00257933292
-0.00252425249
-0.00246927317
-0.00241439451
-0.00235961603
-0.00230493743
-0.0022503587
-0.00219587957
-0.00214149953
-0.00208721794
-0.00203303397
-0.00197894659
-0.00192495448
-0.00187105605
-0.00181724955
-0.00176353313
-0.0017099048
-0.0016563625
-0.00160290414
-0.00154952754
-0.00149623048
-0.00144301066
-0.00138986575
-0.00133679333
-0.00128379098
-0.00123085621
-0.00117798649
-0.00112517925
-0.00107243192
-0.00101974188
-0.000967106482
-0.000914523104
-0.000861989081
-0.000809501747
-0.000757058448
-0.000704656516
-0.000652293285
-0.000599966101
-0.000547672312
-0.000495409258
-0.000443174281
-0.000390964706
-0.0003387779
-0.000286610961
-0.00023446182
-0.000182325481
-0.000130207782
-7.80817512e-05
-2.60641964e-05
-0.00773558981
-0.00773654337
-0.00773880141
-0.00774228279
-0.00774688295
-0.00775262232
-0.00775953523
-0.00776762243
-0.00777686362
-0.00778724647
-0.00779876291
-0.00781139682
-0.0078251229
-0.00783991051
-0.00785572458
-0.00787252426
-0.00789026217
-0.00790888478
-0.00792833381
-0.00794854561
-0.00796945029
-0.00799098427
-0.00801308133
-0.00803566194
-0.00805864028
-0.00808192478
-0.00810541605
-0.00812900637
-0.00815257933
-0.00817600946
-0.00819916205
-0.00822189374
-0.00824405326
-0.00826548162
-0.00828601188
-0.00830546839
-0.00832367303
-0.0083404578
-0.00835564884
-0.00836906262
-0.00838052639
-0.00838986449
-0.00839689618
-0.00840145733
-0.00840340027
-0.00840258559
-0.00839888435
-0.00839218177
-0.00838237902
-0.00836939467
-0.008353166
-0.00833364957
-0.00831082138
-0.00828467673
-0.00825522976
-0.00822251278
-0.00818657535
-0.00814748301
-0.00810531583
-0.00806016678
-0.0080121399
-0.00796134844
-0.00790791299
-0.00785195959
-0.00779361798
-0.00773301999
-0.007670298
-0.00760558369
-0.00753900693
-0.0074706949
-0.00740077139
-0.00732935635
-0.00725656552
-0.00718251026
-0.00710729758
-0.00703103016
-0.00695380663
-0.00687572193
-0.00679686766
-0.00671733259
-0.00663720304
-0.00655656351
-0.00647549767
-0.00639408845
-0.0063124162
-0.0062305673
-0.00614862207
-0.00606666673
-0.00598478877
-0.00590307744
-0.00582162429
-0.00574052261
-0.00565986684
-0.00557975157
-0.00550027034
-0.0054215141
-0.00534356945
-0.00526651666
-0.00519042774
-0.00511536456
-0.0050413771
-0.00496850215
-0.00489676242
-0.00482616616
-0.00475670732
-0.00468836627
-0.00462111097
-0.0045548986
-0.00448967736
-0.00442538855
-0.00436196858
-0.004299351
-0.00423746836
-0.00417625382
-0.00411564255
-0.00405557284
-0.00399598696
-0.00393683173
-0.00387805888
-0.0038196252
-0.00376149249
-0.00370362742
-0.00364600117
-0.00358858911
-0.00353137028
-0.00347432706
-0.00341744467
-0.00336071082
-0.00330411538
-0.00324765008
-0.00319130828
-0.00313508491
-0.00307897642
-0.003022981
-0.00296709846
-0.00291132926
-0.00285567155
-0.00280009989
-0.00274463966
-0.0026892704
-0.00263400129
-0.00257883617
-0.00252377297
-0.00246880928
-0.00241394487
-0.00235917983
-0.0023045141
-0.00224994759
-0.00219548009
-0.00214111113
-0.00208684001
-0.00203266582
-0.00197858751
-0.0019246039
-0.00187071364
-0.00181691524
-0.00176320704
-0.00170958722
-0.00165605379
-0.00160260467
-0.00154923767
-0.0014959505
-0.00144274083
-0.00138960625
-0.00133654431
-0.00128355253
-0.00123062841
-0.00117776938
-0.00112497287
-0.00107223631
-0.00101955706
-0.000966932519
-0.000914360043
-0.000861836982
-0.000809360673
-0.000756928459
-0.00070453766
-0.000652185591
-0.000599869569
-0.000547586906
-0.000495334896
-0.000443110831
-0.000390911984
-0.000338735666
-0.000286578912
-0.000234439606
-0.000182312598
-0.000130203586
-7.80838572e-05
-2.60694932e-05
-0.00772593449
-0.00772690321
-0.00772920372
-0.00773276784
-0.00773748249
-0.00774335122
-0.00775041116
-0.00775866363
-0.00776809102
-0.00777868323
-0.00779043373
-0.00780332766
-0.00781734072
-0.00783244299
-0.00784860005
-0.00786577246
-0.00788391634
-0.00790298423
-0.00792292581
-0.00794368782
-0.00796521156
-0.00798742514
-0.0080102506
-0.00803360838
-0.00805741383
-0.00808157593
-0.00810599625
-0.00813056803
-0.00815517505
-0.00817969085
-0.00820397828
-0.00822788965
-0.00825126745
-0.00827394569
-0.00829575339
-0.0083165197
-0.008336069
-0.00835420995
-0.00837071251
-0.00838538684
-0.00839807191
-0.00840857372
-0.00841671884
-0.00842233564
-0.00842525455
-0.00842532014
-0.00842239369
-0.00841635209
-0.00840708944
-0.00839451892
-0.00837857408
-0.00835920968
-0.00833640199
-0.00831014868
-0.00828046831
-0.00824739943
-0.00821099945
-0.00817134318
-0.00812852107
-0.0080826373
-0.0080338076
-0.00798215712
-0.00792781816
-0.00787092809
-0.00781162727
-0.00775005729
-0.00768635923
-0.00762067229
-0.0075531326
-0.00748387227
-0.00741301871
-0.00734069421
-0.00726701569
-0.00719209471
-0.00711603763
-0.00703894587
-0.00696091627
-0.00688204154
-0.00680241071
-0.00672210968
-0.00664122187
-0.00655982876
-0.00647801033
-0.00639584608
-0.00631341716
-0.00623080314
-0.00614808776
-0.00606535558
-0.00598269505
-0.00590019846
-0.00581796148
-0.0057360831
-0.00565466508
-0.00557381083
-0.00549362384
-0.00541420589
-0.00533565477
-0.00525806182
-0.00518150935
-0.00510606813
-0.00503179518
-0.00495873193
-0.00488690304
-0.00481631588
-0.00474696075
-0.00467881178
-0.00461182853
-0.004545958
-0.00448113709
-0.00441729513
-0.00435435646
-0.00429224291
-0.00423087608
-0.0041701792
-0.00411007875
-0.00405050566
-0.00399139623
-0.00393269262
-0.00387434313
-0.00381630227
-0.00375853051
-0.00370099403
-0.00364366424
-0.00358651728
-0.00352953351
-0.00347269695
-0.00341599475
-0.00335941676
-0.00330295515
-0.00324660405
-0.00319035926
-0.00313421796
-0.0030781783
-0.00302223907
-0.00296640064
-0.00291066696
-0.00285505857
-0.00279945797
-0.00274398631
-0.00268863051
-0.00263337488
-0.00257821862
-0.00252316293
-0.00246820701
-0.00241335042
-0.00235859328
-0.00230393561
-0.00224937726
-0.00219491801
-0.00214055742
-0.00208629488
-0.00203212958
-0.00197806054
-0.00192408656
-0.00187020625
-0.00181641806
-0.00176272029
-0.00170911111
-0.00165558857
-0.00160215061
-0.00154879508
-0.00149551973
-0.00144232225
-0.00138920026
-0.00133615131
-0.00128317292
-0.00123026256
-0.00117741767
-0.00112463563
-0.00107191383
-0.00101924962
-0.000966640325
-0.000914083272
-0.000861575763
-0.000809115091
-0.000756698559
-0.000704323452
-0.000651987054
-0.000599686654
-0.00054741954
-0.000495182979
-0.000442974236
-0.000390790556
-0.000338629215
-0.000286487222
-0.000234362427
-0.00018224974
-0.000130154985
-7.80508352e-05
-2.60547679e-05
-0.00771471865
-0.00771571306
-0.00771807397
-0.00772172427
-0.00772654924
-0.00773255471
-0.00773977626
-0.00774821393
-0.00775784977
-0.00776867429
-0.00778068244
-0.00779386164
-0.00780819061
-0.00782364321
-0.00784018972
-0.00785779603
-0.00787642323
-0.00789602781
-0.00791656104
-0.00793796786
-0.0079601871
-0.00798315355
-0.00800679713
-0.0080310409
-0.00805580041
-0.00808098412
-0.00810649298
-0.00813221919
-0.00815804501
-0.00818384195
-0.00820947028
-0.00823477927
-0.008259608
-0.00828378649
-0.0083071348
-0.00832946129
-0.00835057468
-0.00837030205
-0.00838836294
-0.00840457851
-0.00841876917
-0.00843073749
-0.00844027784
-0.00844719317
-0.00845130658
-0.0084524555
-0.00845048895
-0.00844527163
-0.0084366875
-0.00842464175
-0.00840906248
-0.00838990177
-0.00836713604
-0.00834076577
-0.00831081489
-0.00827732966
-0.00824037727
-0.0082000441
-0.0081564336
-0.00810966395
-0.00805986552
-0.0080071782
-0.00795174888
-0.00789372887
-0.00783327158
-0.00777053045
-0.00770565701
-0.00763879942
-0.00757010123
-0.00749970042
-0.00742772884
-0.00735431182
-0.00727956806
-0.0072036097
-0.00712654255
-0.00704846647
-0.00696947586
-0.0068896603
-0.00680910517
-0.0067278924
-0.00664610116
-0.00656380873
-0.00648109147
-0.00639802587
-0.006314689
-0.00623116077
-0.00614752117
-0.00606385491
-0.00598025218
-0.0058968083
-0.00581362366
-0.00573080392
-0.00564845954
-0.00556670452
-0.00548565462
-0.00540542514
-0.0053261281
-0.00524786902
-0.00517074353
-0.00509483405
-0.0050202068
-0.00494690929
-0.00487496876
-0.0048043914
-0.00473516269
-0.0046672486
-0.0046005977
-0.00453514389
-0.00447080953
-0.00440750874
-0.00434515071
-0.00428364274
-0.004222893
-0.00416281274
-0.00410331812
-0.00404433153
-0.00398578245
-0.00392760791
-0.00386975262
-0.00381216883
-0.00375481596
-0.00369766006
-0.00364067324
-0.00358383297
-0.00352712139
-0.00347052466
-0.00341403232
-0.00335763672
-0.0033013325
-0.0032451161
-0.00318898534
-0.00313293913
-0.00307697743
-0.00302110101
-0.00296531178
-0.00290961114
-0.00285396239
-0.00279850206
-0.00274309269
-0.00268776994
-0.00263254184
-0.0025774084
-0.00252237147
-0.00246743215
-0.00241259088
-0.00235784817
-0.00230320441
-0.00224865972
-0.00219421402
-0.00213986699
-0.00208561812
-0.00203146669
-0.00197741175
-0.00192345219
-0.00186958665
-0.00181581359
-0.00176213132
-0.00170853798
-0.00165503161
-0.00160161011
-0.00154827133
-0.00149501299
-0.00144183274
-0.0013887282
-0.00133569689
-0.00128273632
-0.00122984392
-0.00117701713
-0.00112425332
-0.00107154985
-0.00101890407
-0.000966313303
-0.000913774868
-0.000861286062
-0.000808844172
-0.000756446489
-0.00070409028
-0.000651772806
-0.000599491326
-0.000547243093
-0.000495025339
-0.000442835293
-0.00039067016
-0.000338527189
-0.000286403359
-0.000234296509
-0.000182201478
-0.000130124037
-7.80356666e-05
-2.60531194e-05
-0.00770190645
-0.00770292479
-0.00770534049
-0.00770907619
-0.00771401451
-0.00772015909
-0.00772754581
-0.0077361753
-0.00774603079
-0.00775710479
-0.00776939471
-0.00778289072
-0.00779757452
-0.00781342313
-0.00783040999
-0.00784850393
-0.0078676688
-0.00788786391
-0.00790904427
-0.00793116022
-0.00795415634
-0.00797797065
-0.00800253378
-0.00802776954
-0.00805359548
-0.00807992234
-0.00810665273
-0.00813367968
-0.00816088526
-0.00818813958
-0.00821530011
-0.00824221145
-0.00826870536
-0.00829460107
-0.00831970803
-0.00834382844
-0.00836674547
-0.00838820348
-0.00840810276
-0.00842620736
-0.00844221272
-0.00845589615
-0.00846705493
-0.0084754963
-0.00848102326
-0.00848344988
-0.00848260923
-0.00847835369
-0.00847055638
-0.00845911399
-0.00844394901
-0.00842501086
-0.00840227634
-0.00837574949
-0.00834546084
-0.00831146612
-0.00827384459
-0.0082326969
-0.00818814252
-0.00814031688
-0.00808936829
-0.00803545476
-0.00797874096
-0.00791939518
-0.00785758666
-0.00779348319
-0.00772724893
-0.00765904281
-0.00758901715
-0.00751731671
-0.00744407817
-0.0073694298
-0.00729349159
-0.00721637545
-0.00713818582
-0.00705902017
-0.00697896977
-0.00689812048
-0.00681655347
-0.0067343461
-0.00665157278
-0.00656830598
-0.00648461699
-0.00640057663
-0.00631625749
-0.00623173482
-0.00614708984
-0.00606240414
-0.00597776668
-0.00589327524
-0.0058090352
-0.00572515961
-0.00564176897
-0.00555899003
-0.0054769537
-0.00539579222
-0.00531563574
-0.00523660803
-0.00515882206
-0.00508237555
-0.0050073468
-0.00493379139
-0.00486173995
-0.00479119716
-0.00472214216
-0.00465453025
-0.00458829574
-0.00452335559
-0.00445961362
-0.00439696477
-0.00433529933
-0.00427450679
-0.00421447911
-0.00415511339
-0.00409631391
-0.00403799348
-0.00398007425
-0.00392248803
-0.00386517621
-0.00380808932
-0.00375118642
-0.00369443434
-0.00363780681
-0.00358128357
-0.00352484949
-0.00346849376
-0.00341220911
-0.00335599116
-0.00329983784
-0.00324374891
-0.00318772559
-0.00313177004
-0.00307588472
-0.00302007078
-0.00296432554
-0.00290865771
-0.00285307239
-0.00279759182
-0.00274219587
-0.0026868848
-0.0026316654
-0.00257654013
-0.00252151056
-0.0024665782
-0.00241174405
-0.00235700881
-0.00230237301
-0.00224783689
-0.00219340046
-0.00213906347
-0.00208482542
-0.00203068555
-0.00197664287
-0.00192269623
-0.00186884424
-0.00181508538
-0.00176141798
-0.00170784019
-0.00165435003
-0.00160094542
-0.00154762416
-0.00149438395
-0.00144122241
-0.00138813712
-0.00133512556
-0.0012821852
-0.00122931345
-0.00117650769
-0.00112376525
-0.00107108348
-0.00101845966
-0.000965891073
-0.000913374997
-0.000860908685
-0.000808489381
-0.000756114339
-0.000703780795
-0.000651485982
-0.000599227138
-0.000547001498
-0.000494806277
-0.000442638686
-0.000390495917
-0.0003383752
-0.000286273505
-0.000234188654
-0.000182115531
-0.000130059971
-7.79944439e-05
-2.60365609e-05
-0.00768745944
-0.00768850157
-0.00769097311
-0.00769479492
-0.00769984681
-0.00770613291
-0.00771369016
-0.00772251994
-0.00773260666
-0.0077439447
-0.00775653389
-0.00777036719
-0.00778542953
-0.00780170157
-0.00781916077
-0.00783778049
-0.00785752946
-0.00787837202
-0.00790026786
-0.00792317146
-0.00794703106
-0.0079717876
-0.00799737523
-0.00802372142
-0.00805074649
-0.00807836291
-0.0081064744
-0.0081349746
-0.00816374547
-0.00819265585
-0.00822156049
-0.00825029968
-0.00827869964
-0.00830657326
-0.00833371938
-0.00835992256
-0.00838496151
-0.00840862217
-0.00843066241
-0.00845082661
-0.00846885327
-0.00848452249
-0.00849759144
-0.0085078245
-0.0085150045
-0.0085189302
-0.00851941646
-0.00851629767
-0.00850943199
-0.00849870455
-0.00848402986
-0.00846535337
-0.00844265217
-0.00841593467
-0.00838523971
-0.00835063493
-0.00831221468
-0.00827009736
-0.00822442232
-0.0081753463
-0.00812303973
-0.00806768283
-0.00800946196
-0.00794856598
-0.00788518314
-0.0078194982
-0.00775169008
-0.00768193002
-0.00761038018
-0.00753719277
-0.0074625096
-0.00738646204
-0.00730917126
-0.0072307488
-0.00715129721
-0.00707091094
-0.00698967718
-0.00690767691
-0.00682498582
-0.00674167534
-0.00665781363
-0.00657346664
-0.00648869932
-0.00640357617
-0.00631816287
-0.00623253261
-0.0061467605
-0.00606092442
-0.00597511249
-0.00588942514
-0.00580397273
-0.00571887626
-0.00563426777
-0.00555028923
-0.00546709007
-0.00538482389
-0.00530364398
-0.00522369785
-0.00514512128
-0.0050680322
-0.00499252505
-0.00491866621
-0.00484649082
-0.00477600154
-0.00470716904
-0.00463993449
-0.00457421347
-0.00450990093
-0.0044468768
-0.00438501173
-0.00432417241
-0.00426422643
-0.00420504628
-0.00414651243
-0.00408851552
-0.00403095777
-0.00397375362
-0.00391682973
-0.0038601246
-0.00380358779
-0.00374717893
-0.00369086662
-0.00363462724
-0.00357844382
-0.0035223049
-0.00346620359
-0.00341013657
-0.00335410336
-0.00329810559
-0.00324214636
-0.0031862298
-0.0031303607
-0.00307454471
-0.00301878953
-0.00296309567
-0.0029074727
-0.00285192998
-0.00279646909
-0.00274109376
-0.00268580367
-0.00263060192
-0.00257549187
-0.00252047594
-0.00246555616
-0.00241073409
-0.00235601091
-0.00230138741
-0.00224686407
-0.002192441
-0.00213811803
-0.00208389474
-0.00202977043
-0.00197574417
-0.00192181482
-0.00186798099
-0.00181424111
-0.00176059342
-0.00170703603
-0.00165356689
-0.00160018388
-0.00154688475
-0.00149366717
-0.00144052873
-0.00138746696
-0.00133447931
-0.00128156321
-0.00122871604
-0.00117593513
-0.0011232178
-0.00107056135
-0.00101796304
-0.000965420139
-0.000912929893
-0.000860489543
-0.000808096314
-0.000755747441
-0.000703440137
-0.000651171608
-0.000598939062
-0.000546739703
-0.000494570715
-0.000442429281
-0.000390312567
-0.000338217786
-0.000286141891
-0.000234082709
-0.000182035095
-0.000130004853
-7.79637489e-05
-2.60285832e-05
-0.00767134023
-0.00767240626
-0.00767493351
-0.00767884153
-0.00768400817
-0.00769043821
-0.00769816995
-0.0077072061
-0.00771753276
-0.00772914673
-0.00774205083
-0.00775624142
-0.00777170716
-0.00778843275
-0.00780640001
-0.00782558679
-0.00784596656
-0.00786750839
-0.0078901768
-0.007913931
-0.00793872418
-0.00796450277
-0.00799120545
-0.00801876345
-0.0080471005
-0.00807613237
-0.00810576559
-0.00813589565
-0.00816640516
-0.0081971622
-0.00822801923
-0.00825881245
-0.00828936162
-0.00831947022
-0.00834892677
-0.0083775055
-0.00840496278
-0.00843106385
-0.00845553436
-0.00847810749
-0.00849853444
-0.00851651925
-0.00853179553
-0.00854410832