/*--------------------------------*- C++ -*----------------------------------*\
| =========                 |                                                 |
| \\      /  F ield         | OpenFOAM: The Open Source CFD Toolbox           |
|  \\    /   O peration     | Version:  v2012                                 |
|   \\  /    A nd           | Website:  www.openfoam.com                      |
|    \\/     M anipulation  |                                                 |
\*---------------------------------------------------------------------------*/
FoamFile
{
    version     2.0;
    format      ascii;
    class       surfaceVectorField;
    location    "2.59";
    object      Uf;
}
// * * * * * * * * * * * * * * * * * * * * * * * * * * * * * * * * * * * * * //

dimensions      [0 1 -1 0 0 0 0];


internalField   nonuniform List<vector> 
56481
(
(0.100003384 -1.60322089e-06 0)
(0.100001262 -6.87849976e-06 0)
(0.100007843 8.5231064e-06 0)
(0.100006956 -4.57843004e-06 0)
(0.100009118 3.05427944e-05 0)
(0.100013235 1.63958994e-05 0)
(0.100001762 6.18577987e-05 0)
(0.100014059 5.39051784e-05 0)
(0.0999821301 9.86246939e-05 0)
(0.100003513 0.000102657058 0)
(0.0999488135 0.000136694328 0)
(0.099978508 0.000156309228 0)
(0.0999022668 0.000172089723 0)
(0.0999385674 0.0002087467 0)
(0.0998443008 0.000201274341 0)
(0.0998848789 0.000254587702 0)
(0.0997776535 0.000221510357 0)
(0.0998198742 0.000289534939 0)
(0.0997055912 0.000231223496 0)
(0.0997469006 0.00031075739 0)
(0.0996315402 0.000230136622 0)
(0.0996697385 0.000317155318 0)
(0.0995587821 0.000219047493 0)
(0.0995921422 0.000309250267 0)
(0.0994902685 0.00019939581 0)
(0.099517561 0.000288646017 0)
(0.0994285496 0.000172974766 0)
(0.0994490429 0.000257436746 0)
(0.0993757042 0.000142032703 0)
(0.0993892068 0.000218088815 0)
(0.0993331415 0.000109616707 0)
(0.0993401155 0.000173905152 0)
(0.0993012528 7.97173071e-05 0)
(0.0993029476 0.000129563852 0)
(0.0992790612 5.68445259e-05 0)
(0.0992775409 9.10427094e-05 0)
(0.0992640655 4.50432359e-05 0)
(0.0992620601 6.46295598e-05 0)
(0.0992524323 4.6820737e-05 0)
(0.0992530249 5.53290525e-05 0)
(0.099239638 6.25178074e-05 0)
(0.0992457402 6.54192777e-05 0)
(0.0992214055 9.02330716e-05 0)
(0.0992351095 9.3811793e-05 0)
(0.0991945217 0.000126210415 0)
(0.099216671 0.000136353086 0)
(0.0991573005 0.000165630215 0)
(0.0991874092 0.0001868179 0)
(0.0991096706 0.000203554014 0)
(0.0991460739 0.000238280294 0)
(0.099052969 0.000235671635 0)
(0.0990931575 0.000284372982 0)
(0.0989895527 0.000258722111 0)
(0.0990306597 0.000320084643 0)
(0.098922345 0.000270669979 0)
(0.0989616252 0.00034210115 0)
(0.0988544317 0.000270732473 0)
(0.0988895844 0.00034883351 0)
(0.0987887732 0.000259310195 0)
(0.0988181075 0.00034025547 0)
(0.0987280301 0.000237868393 0)
(0.098750533 0.000317671556 0)
(0.0986744454 0.000208816654 0)
(0.0986897964 0.000283521309 0)
(0.0986297233 0.000175396873 0)
(0.0986382848 0.00024127397 0)
(0.0985948555 0.000141521145 0)
(0.0985976983 0.000195365264 0)
(0.0985699446 0.000111512606 0)
(0.0985688248 0.000151004277 0)
(0.0985540193 8.96783979e-05 0)
(0.0985512605 0.00011385226 0)
(0.0985449109 7.97018117e-05 0)
(0.0985432675 8.93898412e-05 0)
(0.098539469 8.40043907e-05 0)
(0.0985418291 8.18760388e-05 0)
(0.0985340449 0.000103176224 0)
(0.0985429546 9.34896907e-05 0)
(0.0985251636 0.000135625135 0)
(0.0985422856 0.000123629388 0)
(0.09851012 0.000177716059 0)
(0.0985358805 0.000168784275 0)
(0.0984873963 0.000224471478 0)
(0.0985209365 0.000223110783 0)
(0.0984568308 0.000270638112 0)
(0.0984962487 0.000279651448 0)
(0.0984194818 0.000311814659 0)
(0.0984623065 0.000331893928 0)
(0.0983772263 0.000345312079 0)
(0.098420995 0.000375174861 0)
(0.0983322153 0.000370491334 0)
(0.0983749827 0.000407497225 0)
(0.0982863471 0.000388508989 0)
(0.0983269882 0.000429540082 0)
(0.0982409045 0.000401613772 0)
(0.0982791508 0.000443928652 0)
(0.0981964314 0.000412281567 0)
(0.0982326759 0.000454089065 0)
(0.0981528377 0.000422495403 0)
(0.0981878122 0.000463123984 0)
(0.0981096438 0.000433372267 0)
(0.0981440992 0.00047307309 0)
(0.0980662518 0.000445169754 0)
(0.0981007387 0.000484713465 0)
(0.09802215 0.0004575569 0)
(0.0980569373 0.000497819336 0)
(0.0979770057 0.000469966697 0)
(0.0980121146 0.000511647714 0)
(0.0979306609 0.000481873823 0)
(0.0979659573 0.000525397681 0)
(0.0978830719 0.000492924484 0)
(0.0979183602 0.000538483352 0)
(0.0978342431 0.0005029319 0)
(0.097869325 0.00055059206 0)
(0.0977841828 0.000511800743 0)
(0.0978188774 0.000561598367 0)
(0.0977328916 0.000519446852 0)
(0.0977670269 0.000571436253 0)
(0.0976803715 0.000525750848 0)
(0.097713768 0.00058000548 0)
(0.0976266438 0.000530551089 0)
(0.0976591017 0.000587138488 0)
(0.0975717627 0.000533660749 0)
(0.0976030591 0.000592614245 0)
(0.097515823 0.000534890167 0)
(0.097545715 0.000596190362 0)
(0.0974589613 0.000534062439 0)
(0.0974871925 0.000597630799 0)
(0.097401354 0.000531019064 0)
(0.0974276594 0.000596719704 0)
(0.0973432166 0.000525620063 0)
(0.0973673253 0.000593262618 0)
(0.0972848024 0.000517743589 0)
(0.0973064416 0.000587085878 0)
(0.0972264013 0.000507286254 0)
(0.0972452992 0.000578035579 0)
(0.0971683394 0.000494164426 0)
(0.0971842274 0.000565978396 0)
(0.097110977 0.000478316225 0)
(0.0971235928 0.000550803968 0)
(0.0970547072 0.000459703765 0)
(0.097063797 0.000532427581 0)
(0.0969999534 0.00043831519 0)
(0.0970052744 0.000510792307 0)
(0.0969471682 0.000414166224 0)
(0.09694849 0.00048587025 0)
(0.0968968331 0.000387300891 0)
(0.0968939371 0.000457662727 0)
(0.0968494578 0.000357790717 0)
(0.0968421364 0.000426199496 0)
(0.096805581 0.000325731998 0)
(0.0967936332 0.000391536891 0)
(0.0967657684 0.000291240724 0)
(0.0967489961 0.000353756729 0)
(0.0967306077 0.000254444684 0)
(0.0967088129 0.000312963809 0)
(0.0967006979 0.0002154754 0)
(0.0966736849 0.000269282267 0)
(0.0966766335 0.000174462516 0)
(0.0966442145 0.000222852363 0)
(0.096658984 0.000131532155 0)
(0.0966209805 0.000173828429 0)
(0.0966482199 8.68184133e-05 0)
(0.0966045399 0.000122393423 0)
(0.0966446176 4.05413454e-05 0)
(0.0965954214 6.88034175e-05 0)
(0.0966480335 -6.63393292e-06 0)
(0.0965940809 1.35825837e-05 0)
(0.0966602899 -5.42499241e-05 0)
(0.0966010794 -4.35321215e-05 0)
(0.0966819336 -0.000102526257 0)
(0.0966172214 -0.000101566374 0)
(0.0967131449 -0.000151526916 0)
(0.0966430561 -0.000160671998 0)
(0.096754037 -0.000200999695 0)
(0.0966787512 -0.000220552146 0)
(0.0968046944 -0.000250631727 0)
(0.0967244785 -0.000280845729 0)
(0.0968651477 -0.000300086689 0)
(0.0967803769 -0.000341168873 0)
(0.0969353424 -0.000348987882 0)
(0.0968464656 -0.000401069678 0)
(0.0970151291 -0.00039693214 0)
(0.096922663 -0.000460050665 0)
(0.097104257 -0.000443499795 0)
(0.0970087889 -0.000517588748 0)
(0.0972023681 -0.000488256722 0)
(0.0971045482 -0.00057314044 0)
(0.0973089979 -0.000530759844 0)
(0.0972095273 -0.000626150282 0)
(0.097423581 -0.000570567729 0)
(0.0973231993 -0.000676064159 0)
(0.0975454576 -0.000607254443 0)
(0.0974449283 -0.000722344444 0)
(0.0976738834 -0.000640424995 0)
(0.0975739772 -0.000764486329 0)
(0.0978080385 -0.000669730304 0)
(0.0977095169 -0.000802034322 0)
(0.0979470384 -0.000694879795 0)
(0.0978506381 -0.000834597269 0)
(0.0980899459 -0.000715650379 0)
(0.0979963633 -0.000861860659 0)
(0.0982357849 -0.000731891612 0)
(0.0981456631 -0.000883595535 0)
(0.0983835559 -0.000743527604 0)
(0.0982974725 -0.000899663907 0)
(0.0985322533 -0.000750556368 0)
(0.0984507108 -0.000910020826 0)
(0.098680883 -0.000753047257 0)
(0.0986043014 -0.00091471341 0)
(0.0988284799 -0.000751136823 0)
(0.0987571921 -0.000913877106 0)
(0.0989741242 -0.000745023248 0)
(0.0989083735 -0.000907729481 0)
(0.0991169553 -0.000734959418 0)
(0.0990568967 -0.000896561834 0)
(0.0992561836 -0.000721244777 0)
(0.0992018867 -0.000880728998 0)
(0.0993910998 -0.000704216242 0)
(0.0993425543 -0.000860637806 0)
(0.099521081 -0.000684238552 0)
(0.099478204 -0.000836734733 0)
(0.099645595 -0.000661694511 0)
(0.0996082392 -0.000809493278 0)
(0.0997642007 -0.000636975491 0)
(0.0997321643 -0.000779401631 0)
(0.0998765482 -0.000610472569 0)
(0.0998495842 -0.000746951007 0)
(0.0999823749 -0.000582568584 0)
(0.0999602013 -0.000712625097 0)
(0.100081501 -0.000553631224 0)
(0.100063811 -0.000676890799 0)
(0.100173825 -0.000524007295 0)
(0.100160295 -0.000640190436 0)
(0.100259312 -0.00049401763 0)
(0.100249613 -0.000602935594 0)
(0.100337993 -0.000463952198 0)
(0.100331794 -0.000565501711 0)
(0.10040995 -0.000434066729 0)
(0.100406929 -0.000528224052 0)
(0.100475316 -0.000404582024 0)
(0.100475164 -0.000491396094 0)
(0.100534269 -0.00037568501 0)
(0.100536688 -0.000455269016 0)
(0.100587018 -0.000347530514 0)
(0.100591731 -0.000420050224 0)
(0.100633793 -0.000320241685 0)
(0.100640553 -0.000385899659 0)
(0.100674842 -0.000293902919 0)
(0.100683434 -0.000352934019 0)
(0.100710441 -0.000268552296 0)
(0.100720679 -0.000321236579 0)
(0.10074092 -0.00024419659 0)
(0.100752617 -0.000290865557 0)
(0.100766661 -0.000220843727 0)
(0.100779611 -0.000261862889 0)
(0.100788046 -0.000198514536 0)
(0.100802038 -0.000234239362 0)
(0.100805424 -0.000177222907 0)
(0.100820271 -0.00020799524 0)
(0.100819114 -0.000156960025 0)
(0.10083467 -0.000183118842 0)
(0.100829433 -0.000137701883 0)
(0.100845567 -0.000159593085 0)
(0.1008367 -0.000119420769 0)
(0.100853278 -0.000137393907 0)
(0.100841228 -0.000102089092 0)
(0.10085812 -0.000116488416 0)
(0.100843321 -8.56794239e-05 0)
(0.100860403 -9.68410571e-05 0)
(0.100843283 -7.01663541e-05 0)
(0.100860427 -7.84251904e-05 0)
(0.100841424 -5.55367737e-05 0)
(0.100858483 -6.12228431e-05 0)
(0.100838047 -4.18089391e-05 0)
(0.100854841 -4.52260167e-05 0)
(0.100833444 -2.90488192e-05 0)
(0.100849747 -3.04530279e-05 0)
(0.100827859 -1.73898109e-05 0)
(0.100843388 -1.69430528e-05 0)
(0.100821419 -7.0238226e-06 0)
(0.100835914 -4.74498749e-06 0)
(0.100813913 1.96911408e-06 0)
(0.100827507 6.3345219e-06 0)
(0.100805096 9.76677475e-06 0)
(0.100818167 1.60552359e-05 0)
(0.100795122 1.6628944e-05 0)
(0.100807756 2.4543355e-05 0)
(0.100784161 2.27069085e-05 0)
(0.100796352 3.20392104e-05 0)
(0.100772361 2.80805937e-05 0)
(0.100784152 3.86448375e-05 0)
(0.100759855 3.28217241e-05 0)
(0.100771289 4.4444447e-05 0)
(0.10074676 3.69990113e-05 0)
(0.10075786 4.95233332e-05 0)
(0.10073318 4.06727128e-05 0)
(0.100743957 5.39569436e-05 0)
(0.100719213 4.38950078e-05 0)
(0.100729675 5.78103654e-05 0)
(0.100704947 4.67114091e-05 0)
(0.100715101 6.11407236e-05 0)
(0.100690465 4.91615695e-05 0)
(0.100700315 6.39985251e-05 0)
(0.100675839 5.12796935e-05 0)
(0.100685387 6.64286324e-05 0)
(0.100661136 5.30947368e-05 0)
(0.100670382 6.84706808e-05 0)
(0.100646415 5.46309085e-05 0)
(0.100655358 7.01592861e-05 0)
(0.100631726 5.59086803e-05 0)
(0.100640366 7.15246781e-05 0)
(0.100617115 5.69459732e-05 0)
(0.100625451 7.2593608e-05 0)
(0.100602617 5.77591842e-05 0)
(0.100610651 7.33901609e-05 0)
(0.100588265 5.83639323e-05 0)
(0.100595998 7.39364053e-05 0)
(0.100574084 5.87754958e-05 0)
(0.100581522 7.42528967e-05 0)
(0.100560099 5.90089651e-05 0)
(0.100567246 7.43590025e-05 0)
(0.100546327 5.90792022e-05 0)
(0.10055319 7.42730629e-05 0)
(0.100532787 5.90007065e-05 0)
(0.100539373 7.40124509e-05 0)
(0.100519493 5.87874425e-05 0)
(0.100525809 7.35935764e-05 0)
(0.100506458 5.84526589e-05 0)
(0.100512512 7.30318536e-05 0)
(0.100493696 5.80087156e-05 0)
(0.100499495 7.2341644e-05 0)
(0.100481215 5.74669388e-05 0)
(0.100486767 7.15361951e-05 0)
(0.100469028 5.68375214e-05 0)
(0.100474337 7.062759e-05 0)
(0.10045714 5.61294803e-05 0)
(0.100462213 6.96267242e-05 0)
(0.100445561 5.53506755e-05 0)
(0.100450402 6.85433171e-05 0)
(0.100434296 5.45078894e-05 0)
(0.10043891 6.73859628e-05 0)
(0.10042335 5.36069599e-05 0)
(0.100427742 6.61622194e-05 0)
(0.100412726 5.26529477e-05 0)
(0.1004169 6.48787289e-05 0)
(0.100402428 5.16503158e-05 0)
(0.100406388 6.35413537e-05 0)
(0.100392458 5.06031024e-05 0)
(0.100396208 6.21553146e-05 0)
(0.100382817 4.95150625e-05 0)
(0.10038636 6.07253172e-05 0)
(0.100373505 4.83897697e-05 0)
(0.100376845 5.9255652e-05 0)
(0.100364523 4.72306721e-05 0)
(0.100367664 5.77502629e-05 0)
(0.100355871 4.60410983e-05 0)
(0.100358815 5.621278e-05 0)
(0.100347548 4.48242248e-05 0)
(0.1003503 5.46465134e-05 0)
(0.100339556 4.35830008e-05 0)
(0.100342118 5.30544136e-05 0)
(0.100331893 4.23200607e-05 0)
(0.100334268 5.14389831e-05 0)
(0.100324563 4.1037511e-05 0)
(0.100326751 4.98021948e-05 0)
(0.100317566 3.97370599e-05 0)
(0.100319567 4.81450709e-05 0)
(0.100310906 3.84180366e-05 0)
(0.100312725 4.64684089e-05 0)
(0.100304588 3.708436e-05 0)
(0.100306195 4.47670325e-05 0)
(0.100298618 3.57069927e-05 0)
(0.100300093 4.30528299e-05 0)
(0.100293021 3.43882892e-05 0)
(0.100294043 4.12377479e-05 0)
(0.100287774 3.25839774e-05 0)
(0.100289443 3.96582106e-05 0)
(0.100281812 3.6631758e-05 0)
(0.100004373 -9.26530353e-06 0)
(0.100001254 -1.19143843e-05 0)
(0.100012289 3.32570884e-06 0)
(0.100007515 -1.36934707e-05 0)
(0.100017987 3.86906025e-05 0)
(0.100015223 9.83466242e-06 0)
(0.100015464 9.23927248e-05 0)
(0.100017856 5.68108157e-05 0)
(0.099999724 0.000156839405 0)
(0.100009004 0.000120781351 0)
(0.0999682736 0.000223771602 0)
(0.0999851729 0.000192524868 0)
(0.0999211783 0.000285696579 0)
(0.0999455972 0.00026297761 0)
(0.0998604063 0.000336527035 0)
(0.0998913812 0.000324567672 0)
(0.0997891101 0.000371922705 0)
(0.0998249857 0.000371633532 0)
(0.0997111042 0.000389547893 0)
(0.0997498728 0.000400582422 0)
(0.0996304411 0.000389097949 0)
(0.0996700244 0.000410040055 0)
(0.0995510461 0.000371883074 0)
(0.0995894519 0.00040067477 0)
(0.0994764839 0.000340136238 0)
(0.0995118769 0.000374505559 0)
(0.0994098724 0.000296592911 0)
(0.0994406114 0.000334140887 0)
(0.0993538059 0.000244731835 0)
(0.099378524 0.000282650164 0)
(0.0993101139 0.000189426226 0)
(0.099327909 0.000224217171 0)
(0.0992794239 0.000137254508 0)
(0.0992901428 0.000164903866 0)
(0.0992607182 9.58521029e-05 0)
(0.0992651941 0.00011258258 0)
(0.0992511653 7.23116526e-05 0)
(0.0992512323 7.5629944e-05 0)
(0.0992464042 7.12780569e-05 0)
(0.099244608 6.08114982e-05 0)
(0.0992412208 9.36073535e-05 0)
(0.0992403157 7.13880009e-05 0)
(0.0992304071 0.00013611356 0)
(0.0992328697 0.000106264017 0)
(0.0992096711 0.000192368696 0)
(0.0992173623 0.000160230845 0)
(0.099176345 0.000254186869 0)
(0.099190337 0.000225193396 0)
(0.0991297312 0.000313289365 0)
(0.0991502218 0.000291956808 0)
(0.0990710365 0.000362640407 0)
(0.0990973524 0.000351960752 0)
(0.0990029606 0.000397186062 0)
(0.0990337174 0.000398475073 0)
(0.0989291283 0.000414049481 0)
(0.0989624998 0.000427120244 0)
(0.0988535442 0.000412373998 0)
(0.0988875223 0.000435869747 0)
(0.0987801649 0.000393007698 0)
(0.0988127542 0.00042475275 0)
(0.0987126086 0.000358198781 0)
(0.0987419692 0.00039546364 0)
(0.0986539602 0.000311413787 0)
(0.0986785207 0.000351055876 0)
(0.0986065999 0.00025727695 0)
(0.0986251656 0.000295810031 0)
(0.098571997 0.00020149101 0)
(0.0985838807 0.000235211088 0)
(0.0985504296 0.000150581461 0)
(0.0985556316 0.000175839456 0)
(0.0985407728 0.000111314405 0)
(0.0985400982 0.000124972171 0)
(0.0985404656 8.972078e-05 0)
(0.0985354974 8.97435878e-05 0)
(0.0985456232 8.98997843e-05 0)
(0.098538613 7.59370049e-05 0)
(0.0985515155 0.00011293017 0)
(0.0985450726 8.6704648e-05 0)
(0.0985533114 0.000156311844 0)
(0.0985499757 0.000121561327 0)
(0.0985469865 0.000214266771 0)
(0.0985487824 0.000176067511 0)
(0.0985300549 0.000278909585 0)
(0.0985381474 0.000242607832 0)
(0.0985019642 0.00034199533 0)
(0.0985164829 0.000311998221 0)
(0.0984640334 0.000396742825 0)
(0.098484136 0.000375571864 0)
(0.098418939 0.00043918527 0)
(0.0984431181 0.000427101762 0)
(0.0983699161 0.000468654052 0)
(0.0983964452 0.000463947754 0)
(0.0983199244 0.000487308927 0)
(0.0983472944 0.000487106356 0)
(0.0982710261 0.000498963897 0)
(0.0982982424 0.000500235787 0)
(0.0982241315 0.000507680987 0)
(0.0982508028 0.00050808888 0)
(0.0981791192 0.000516625032 0)
(0.0982053543 0.00051495631 0)
(0.0981352102 0.000527497061 0)
(0.0981614019 0.000523634906 0)
(0.0980914108 0.000540588363 0)
(0.0981180089 0.000535149136 0)
(0.0980468596 0.000555256703 0)
(0.09807421 0.000549120804 0)
(0.098000996 0.000570520626 0)
(0.0980292771 0.000564460274 0)
(0.0979535603 0.000585515229 0)
(0.0979827992 0.000580020683 0)
(0.0979044928 0.000599693812 0)
(0.0979346223 0.000594985251 0)
(0.0978538173 0.00061280429 0)
(0.0978847313 0.000608945681 0)
(0.0978015605 0.000624750485 0)
(0.0978331472 0.000621772795 0)
(0.0977477263 0.00063545062 0)
(0.0977798752 0.000633427218 0)
(0.097692308 0.000644756835 0)
(0.0977249017 0.000643820517 0)
(0.0976353164 0.000652442931 0)
(0.0976682189 0.000652765142 0)
(0.097576803 0.000658233122 0)
(0.0976098516 0.000659993304 0)
(0.0975168711 0.00066183905 0)
(0.0975498749 0.000665202848 0)
(0.0974556752 0.000662985621 0)
(0.0974884197 0.000668098751 0)
(0.0973934149 0.000661422641 0)
(0.0974256697 0.000668413442 0)
(0.0973303357 0.000656926239 0)
(0.0973618573 0.000665899259 0)
(0.0972667263 0.000649296269 0)
(0.0972972602 0.000660333003 0)
(0.0972029166 0.000638355515 0)
(0.0972321989 0.000651513362 0)
(0.0971392762 0.00062395153 0)
(0.0971670352 0.000639261383 0)
(0.0970762121 0.000605959532 0)
(0.0971021705 0.000623423201 0)
(0.0970141671 0.000584284956 0)
(0.0970380435 0.000603873266 0)
(0.0969536169 0.0005588649 0)
(0.0969751266 0.000580516867 0)
(0.0968950668 0.000529668301 0)
(0.0969139235 0.000553291539 0)
(0.0968390495 0.000496695063 0)
(0.0968549659 0.000522167504 0)
(0.0967861211 0.000459974193 0)
(0.0967988102 0.000487147368 0)
(0.096736857 0.000419561129 0)
(0.0967460353 0.000448265201 0)
(0.0966918481 0.000375534404 0)
(0.0966972386 0.000405585164 0)
(0.0966516955 0.000327991984 0)
(0.0966530319 0.000359200065 0)
(0.0966170025 0.000277048833 0)
(0.0966140369 0.000309231778 0)
(0.0965883519 0.000222839802 0)
(0.09658088 0.000255844057 0)
(0.0965663087 0.000165538258 0)
(0.0965541861 0.000199211396 0)
(0.0965515243 0.000105379296 0)
(0.0965345804 0.000139417917 0)
(0.0965446953 4.2665822e-05 0)
(0.0965226498 7.66671263e-05 0)
(0.09654692 -2.22017117e-05 0)
(0.0965189188 1.10208605e-05 0)
(0.0965577594 -8.87583999e-05 0)
(0.0965239853 -5.60138659e-05 0)
(0.0965781436 -0.000156690969 0)
(0.0965384833 -0.000125039123 0)
(0.0966084272 -0.000225746761 0)
(0.0965629179 -0.000195544076 0)
(0.0966489475 -0.000295528914 0)
(0.0965976519 -0.000267211791 0)
(0.0966999259 -0.000365575231 0)
(0.0966429525 -0.00033954814 0)
(0.0967614617 -0.00043538297 0)
(0.0966990152 -0.000412028327 0)
(0.0968335557 -0.000504392226 0)
(0.0967659265 -0.00048408696 0)
(0.0969161006 -0.000571997136 0)
(0.0968436567 -0.000555102341 0)
(0.0970088693 -0.000637562887 0)
(0.0969320587 -0.000624413342 0)
(0.0971115109 -0.000700438679 0)
(0.0970308584 -0.000691333786 0)
(0.09722355 -0.00075997262 0)
(0.0971396489 -0.000755165009 0)
(0.0973443893 -0.000815528735 0)
(0.0972578907 -0.000815212385 0)
(0.0974733148 -0.000866504293 0)
(0.0973849151 -0.000870804148 0)
(0.0976095047 -0.000912346808 0)
(0.09751993 -0.000921310972 0)
(0.0977520396 -0.000952570087 0)
(0.09766203 -0.00096616539 0)
(0.0978999165 -0.000986768664 0)
(0.0978102093 -0.00100487983 0)
(0.0980520651 -0.00101462976 0)
(0.0979633786 -0.00103706205 0)
(0.0982073662 -0.00103594221 0)
(0.0981203847 -0.00106242703 0)
(0.0983646728 -0.00105060188 0)
(0.0982800328 -0.00108080484 0)
(0.0985228325 -0.00105861346 0)
(0.0984411108 -0.00109214417 0)
(0.09868071 -0.00106008827 0)
(0.0986024138 -0.00109651161 0)
(0.098837208 -0.00105523866 0)
(0.0987627682 -0.00109408694 0)
(0.0989912878 -0.00104436916 0)
(0.0989210546 -0.0010851547 0)
(0.0991419857 -0.0010278651 0)
(0.0990762269 -0.00107009277 0)
(0.0992884271 -0.0010061794 0)
(0.0992273293 -0.00104935845 0)
(0.0994298366 -0.000979818057 0)
(0.0993735089 -0.00102347297 0)
(0.0995655451 -0.00094932525 0)
(0.0995140246 -0.000993005077 0)
(0.099694993 -0.000915268503 0)
(0.0996482518 -0.000958554463 0)
(0.0998177306 -0.000878224553 0)
(0.099775684 -0.000920735869 0)
(0.0999334158 -0.000838766339 0)
(0.0998959309 -0.000880164214 0)
(0.100041809 -0.000797451483 0)
(0.100008714 -0.000837441381 0)
(0.100142766 -0.00075481243 0)
(0.100113858 -0.000793144832 0)
(0.100236233 -0.000711348439 0)
(0.100211286 -0.000747818241 0)
(0.100322231 -0.000667519038 0)
(0.100301005 -0.000701964262 0)
(0.100400855 -0.000623738487 0)
(0.1003831 -0.000656038611 0)
(0.100472258 -0.000580372268 0)
(0.100457718 -0.000610445544 0)
(0.100536643 -0.000537735937 0)
(0.100525065 -0.000565535908 0)
(0.100594252 -0.000496095046 0)
(0.100585391 -0.000521607344 0)
(0.100645364 -0.000455665817 0)
(0.100638985 -0.000478905729 0)
(0.100690286 -0.000416615914 0)
(0.100686162 -0.000437627793 0)
(0.100729355 -0.000379062244 0)
(0.100727264 -0.000397923346 0)
(0.100762929 -0.000343070035 0)
(0.100762656 -0.000359897278 0)
(0.100791369 -0.000308666784 0)
(0.100792711 -0.000323614857 0)
(0.100815035 -0.000275867611 0)
(0.100817807 -0.000289114079 0)
(0.100834297 -0.000244687234 0)
(0.10083832 -0.000256419825 0)
(0.10084955 -0.00021513786 0)
(0.10085463 -0.000225559257 0)
(0.100861148 -0.000187222469 0)
(0.100867104 -0.000196474691 0)
(0.100869423 -0.000160924697 0)
(0.100876098 -0.000169122243 0)
(0.100874699 -0.000136209533 0)
(0.100881951 -0.000143468401 0)
(0.100877287 -0.000113035668 0)
(0.100884985 -0.000119469184 0)
(0.100877496 -9.13722127e-05 0)
(0.100885498 -9.70813497e-05 0)
(0.100875615 -7.11996503e-05 0)
(0.100883778 -7.6258868e-05 0)
(0.100871896 -5.24973915e-05 0)
(0.100880117 -5.69403544e-05 0)
(0.100866543 -3.52472156e-05 0)
(0.100874782 -3.90629266e-05 0)
(0.1008597 -1.94313072e-05 0)
(0.100868017 -2.25724159e-05 0)
(0.10085146 -4.98426747e-06 0)
(0.100860067 -7.45486763e-06 0)
(0.100842073 8.09299368e-06 0)
(0.100851005 6.06471848e-06 0)
(0.100831857 1.968492e-05 0)
(0.10084088 1.80978379e-05 0)
(0.100820794 2.98328984e-05 0)
(0.100829872 2.87950833e-05 0)
(0.100808916 3.87554133e-05 0)
(0.100818046 3.82204275e-05 0)
(0.100796315 4.66251622e-05 0)
(0.100805426 4.65499985e-05 0)
(0.100783075 5.35391595e-05 0)
(0.100792122 5.38907575e-05 0)
(0.100769288 5.95828149e-05 0)
(0.100778256 6.03202361e-05 0)
(0.100755048 6.48421364e-05 0)
(0.100763921 6.59212294e-05 0)
(0.100740443 6.93953382e-05 0)
(0.100749203 7.07744027e-05 0)
(0.100725556 7.33111421e-05 0)
(0.100734186 7.49524363e-05 0)
(0.100710464 7.66504219e-05 0)
(0.100718947 7.85204202e-05 0)
(0.100695233 7.94676938e-05 0)
(0.100703558 8.15366717e-05 0)
(0.100679927 8.18120843e-05 0)
(0.100688085 8.40534599e-05 0)
(0.100664602 8.37277073e-05 0)
(0.100672586 8.61175201e-05 0)
(0.100649309 8.52539363e-05 0)
(0.100657113 8.77703284e-05 0)
(0.10063409 8.64259501e-05 0)
(0.100641713 8.90486683e-05 0)
(0.100618987 8.72753611e-05 0)
(0.100626426 8.99854758e-05 0)
(0.100604032 8.78307379e-05 0)
(0.100611287 9.06105881e-05 0)
(0.100589256 8.81180629e-05 0)
(0.100596326 9.09513131e-05 0)
(0.100574684 8.81611513e-05 0)
(0.100581568 9.1032886e-05 0)
(0.100560338 8.79819888e-05 0)
(0.100567035 9.08788033e-05 0)
(0.100546237 8.76009711e-05 0)
(0.100552747 9.05110143e-05 0)
(0.100532396 8.70370686e-05 0)
(0.100538719 8.99500172e-05 0)
(0.10051883 8.63079309e-05 0)
(0.100524964 8.92149042e-05 0)
(0.100505551 8.54299448e-05 0)
(0.100511496 8.83233816e-05 0)
(0.100492568 8.44182589e-05 0)
(0.100498325 8.729177e-05 0)
(0.10047989 8.32867934e-05 0)
(0.100485458 8.61350028e-05 0)
(0.100467524 8.20482511e-05 0)
(0.100472905 8.48666354e-05 0)
(0.100455477 8.07141424e-05 0)
(0.100460671 8.3498877e-05 0)
(0.100443754 7.92948258e-05 0)
(0.100448763 8.20426457e-05 0)
(0.100432359 7.77995695e-05 0)
(0.100437183 8.05076465e-05 0)
(0.100421295 7.62366328e-05 0)
(0.100425937 7.8902473e-05 0)
(0.100410565 7.46133601e-05 0)
(0.100415026 7.72347236e-05 0)
(0.10040017 7.293628e-05 0)
(0.100404452 7.55111248e-05 0)
(0.100390112 7.12112059e-05 0)
(0.100394216 7.37376535e-05 0)
(0.100380391 6.94433242e-05 0)
(0.100384319 7.19196468e-05 0)
(0.100371006 6.76372656e-05 0)
(0.10037476 7.00618903e-05 0)
(0.100361959 6.57971566e-05 0)
(0.10036554 6.81686803e-05 0)
(0.100353247 6.39266416e-05 0)
(0.100356657 6.62438562e-05 0)
(0.100344872 6.20288776e-05 0)
(0.10034811 6.42908003e-05 0)
(0.100336832 6.01064861e-05 0)
(0.100339899 6.23124091e-05 0)
(0.100329128 5.81614921e-05 0)
(0.100332023 6.03110177e-05 0)
(0.100321758 5.61950699e-05 0)
(0.100324483 5.82883604e-05 0)
(0.100314724 5.42078231e-05 0)
(0.100317274 5.62451341e-05 0)
(0.100308025 5.21969253e-05 0)
(0.100310406 5.41822372e-05 0)
(0.100301662 5.01672205e-05 0)
(0.100303848 5.20938316e-05 0)
(0.10029563 4.80757406e-05 0)
(0.10029771 4.99991572e-05 0)
(0.100289935 4.60821079e-05 0)
(0.100291609 4.77958782e-05 0)
(0.100284479 4.34087713e-05 0)
(0.100286961 4.59399964e-05 0)
(0.100279199 4.24088288e-05 0)
(0.100003724 -1.6163657e-05 0)
(0.10000133 -1.62031235e-05 0)
(0.100010663 -6.58837024e-06 0)
(0.100007869 -2.16837194e-05 0)
(0.100015135 2.97045919e-05 0)
(0.100015731 4.68543891e-06 0)
(0.10001106 8.83714683e-05 0)
(0.100018509 6.15035464e-05 0)
(0.0999942583 0.000160974284 0)
(0.100009962 0.000140128475 0)
(0.0999625158 0.000237448098 0)
(0.0999863775 0.000229076892 0)
(0.099915826 0.00030861103 0)
(0.099946854 0.000316741545 0)
(0.0998559283 0.000367263482 0)
(0.0998923965 0.000393540818 0)
(0.099785734 0.000408447968 0)
(0.0998253969 0.000452463406 0)
(0.0997088396 0.00042951849 0)
(0.0997492989 0.000489127461 0)
(0.0996291225 0.000430080706 0)
(0.099668137 0.000501835537 0)
(0.0995503874 0.000411530501 0)
(0.0995860425 0.000491339377 0)
(0.0994761243 0.000376286612 0)
(0.0995069002 0.000460020656 0)
(0.0994094008 0.000327319407 0)
(0.0994341939 0.000410973957 0)
(0.0993527792 0.000268439858 0)
(0.0993709405 0.000347850909 0)
(0.0993080961 0.000205076138 0)
(0.09931954 0.000275670441 0)
(0.0992760668 0.000144670358 0)
(0.0992814222 0.000201786024 0)
(0.0992558499 9.5967679e-05 0)
(0.099256556 0.000135862624 0)
(0.0992448078 6.72112598e-05 0)
(0.0992430722 8.83450811e-05 0)
(0.0992386412 6.39673647e-05 0)
(0.0992372514 6.79124244e-05 0)
(0.0992320585 8.75409046e-05 0)
(0.0992339966 7.89681164e-05 0)
(0.0992199089 0.00013460167 0)
(0.0992277114 0.000120254503 0)
(0.0991981464 0.00019802985 0)
(0.0992133326 0.000185290709 0)
(0.0991643742 0.000268558963 0)
(0.099187209 0.000264082612 0)
(0.0991180223 0.000336640182 0)
(0.0991475973 0.000345331707 0)
(0.0990602257 0.000394002574 0)
(0.0990947377 0.000418514433 0)
(0.0989934754 0.000434602109 0)
(0.0990305989 0.000475338992 0)
(0.098921143 0.000454936337 0)
(0.0989584093 0.000510412143 0)
(0.0988470041 0.000453896274 0)
(0.0988821056 0.000521241802 0)
(0.0987748471 0.000432387076 0)
(0.0988058347 0.0005078426 0)
(0.0987081849 0.000392935725 0)
(0.0987335873 0.000472226236 0)
(0.0986500415 0.000339437738 0)
(0.0986689427 0.000418008889 0)
(0.0986027667 0.000277067679 0)
(0.0986148644 0.000350247681 0)
(0.0985678329 0.000212221304 0)
(0.098573485 0.000275437923 0)
(0.0985456024 0.000152263667 0)
(0.0985458472 0.000201438167 0)
(0.0985351136 0.000104889767 0)
(0.0985316269 0.000137050151 0)
(0.0985339527 7.70296907e-05 0)
(0.098528949 9.10804084e-05 0)
(0.0985383776 7.34916941e-05 0)
(0.0985344448 7.08417075e-05 0)
(0.0985438394 9.57804823e-05 0)
(0.0985436286 8.04152606e-05 0)
(0.0985457421 0.000141448583 0)
(0.0985515174 0.000119370367 0)
(0.0985402249 0.000204246126 0)
(0.0985534053 0.000182420616 0)
(0.0985248384 0.000275264583 0)
(0.0985457072 0.000260325585 0)
(0.0984988951 0.000344893991 0)
(0.0985266168 0.000341872405 0)
(0.0984634373 0.000405014108 0)
(0.098496344 0.000416401988 0)
(0.0984208164 0.000450717924 0)
(0.0984568566 0.000476180424 0)
(0.0983739892 0.000481030366 0)
(0.0984112088 0.000517869923 0)
(0.09832575 0.000498452652 0)
(0.0983626755 0.000542654623 0)
(0.0982781267 0.000507590438 0)
(0.0983139616 0.000555074654 0)
(0.0982321021 0.000513432624 0)
(0.0982667079 0.000561086951 0)
(0.098187682 0.000519907006 0)
(0.0982213917 0.000566106718 0)
(0.0981442143 0.000529137396 0)
(0.0981775716 0.000573688589 0)
(0.0981007912 0.000541481657 0)
(0.0981343155 0.000585151529 0)
(0.0980565811 0.000556116689 0)
(0.098090624 0.000600029367 0)
(0.0980110059 0.000571789368 0)
(0.0980457122 0.000616940875 0)
(0.0979637608 0.000587402097 0)
(0.0979991065 0.000634424161 0)
(0.0979147364 0.000602276854 0)
(0.0979505976 0.00065143755 0)
(0.0978639154 0.000616127828 0)
(0.0979001272 0.000667466788 0)
(0.0978112975 0.000628881333 0)
(0.0978476864 0.000682363158 0)
(0.0977568707 0.000640488831 0)
(0.0977932598 0.000696100468 0)
(0.0977006203 0.000650818089 0)
(0.09773682 0.000708593772 0)
(0.0976425522 0.000659633917 0)
(0.0976783499 0.00071963142 0)
(0.097582715 0.000666633844 0)
(0.0976178694 0.0007288967 0)
(0.0975212111 0.000671495749 0)
(0.097555453 0.000736025548 0)
(0.0974582001 0.000673911157 0)
(0.0974912366 0.00074065691 0)
(0.0973938985 0.000673599411 0)
(0.0974254158 0.000742457733 0)
(0.0973285703 0.000670308259 0)
(0.0973582417 0.00074112564 0)
(0.0972625246 0.000663809411 0)
(0.0972900138 0.000736385684 0)
(0.0971961133 0.000653896425 0)
(0.0972210784 0.000727986907 0)
(0.09712973 0.000640386171 0)
(0.0971518263 0.000715702771 0)
(0.0970638069 0.000623122043 0)
(0.0970826906 0.000699334643 0)
(0.0969988121 0.00060197716 0)
(0.0970141436 0.000678715797 0)
(0.0969352459 0.000576856639 0)
(0.0969466936 0.00065371427 0)
(0.0968736379 0.000547698837 0)
(0.0968808809 0.00062423413 0)
(0.0968145436 0.000514475842 0)
(0.0968172747 0.000590215519 0)
(0.0967585421 0.000477193402 0)
(0.096756469 0.000551633963 0)
(0.0967062334 0.000435890475 0)
(0.0966990793 0.00050849937 0)
(0.096658236 0.000390638713 0)
(0.0966457397 0.000460854985 0)
(0.0966151826 0.000341542523 0)
(0.0965970984 0.000408776664 0)
(0.0965777183 0.000288739434 0)
(0.0965538144 0.000352372446 0)
(0.096546511 0.000232403414 0)
(0.0965165546 0.000291779771 0)
(0.0965222452 0.000172753962 0)
(0.0964859944 0.000227153882 0)
(0.0965055075 0.000110036421 0)